 Entering Gaussian System, Link 0=g16
 Initial command:
 /home/software/GAUSSIAN/g16_new_pgi/l1.exe "/scr/Gau-24136.inp" -scrdir="/scr/"
 Entering Link 1 = /home/software/GAUSSIAN/g16_new_pgi/l1.exe PID=     24138.
  
 Copyright (c) 1988,1990,1992,1993,1995,1998,2003,2009,2016,
            Gaussian, Inc.  All Rights Reserved.
  
 This is part of the Gaussian(R) 16 program.  It is based on
 the Gaussian(R) 09 system (copyright 2009, Gaussian, Inc.),
 the Gaussian(R) 03 system (copyright 2003, Gaussian, Inc.),
 the Gaussian(R) 98 system (copyright 1998, Gaussian, Inc.),
 the Gaussian(R) 94 system (copyright 1995, Gaussian, Inc.),
 the Gaussian 92(TM) system (copyright 1992, Gaussian, Inc.),
 the Gaussian 90(TM) system (copyright 1990, Gaussian, Inc.),
 the Gaussian 88(TM) system (copyright 1988, Gaussian, Inc.),
 the Gaussian 86(TM) system (copyright 1986, Carnegie Mellon
 University), and the Gaussian 82(TM) system (copyright 1983,
 Carnegie Mellon University). Gaussian is a federally registered
 trademark of Gaussian, Inc.
  
 This software contains proprietary and confidential information,
 including trade secrets, belonging to Gaussian, Inc.
  
 This software is provided under written license and may be
 used, copied, transmitted, or stored only in accord with that
 written license.
  
 The following legend is applicable only to US Government
 contracts under FAR:
  
                    RESTRICTED RIGHTS LEGEND
  
 Use, reproduction and disclosure by the US Government is
 subject to restrictions as set forth in subparagraphs (a)
 and (c) of the Commercial Computer Software - Restricted
 Rights clause in FAR 52.227-19.
  
 Gaussian, Inc.
 340 Quinnipiac St., Bldg. 40, Wallingford CT 06492
  
  
 ---------------------------------------------------------------
 Warning -- This program may not be used in any manner that
 competes with the business of Gaussian, Inc. or will provide
 assistance to any competitor of Gaussian, Inc.  The licensee
 of this program is prohibited from giving any competitor of
 Gaussian, Inc. access to this program.  By using this program,
 the user acknowledges that Gaussian, Inc. is engaged in the
 business of creating and licensing software in the field of
 computational chemistry and represents and warrants to the
 licensee that it is not a competitor of Gaussian, Inc. and that
 it will not use this program in any manner prohibited above.
 ---------------------------------------------------------------
  

 Cite this work as:
 Gaussian 16, Revision A.03,
 M. J. Frisch, G. W. Trucks, H. B. Schlegel, G. E. Scuseria, 
 M. A. Robb, J. R. Cheeseman, G. Scalmani, V. Barone, 
 G. A. Petersson, H. Nakatsuji, X. Li, M. Caricato, A. V. Marenich, 
 J. Bloino, B. G. Janesko, R. Gomperts, B. Mennucci, H. P. Hratchian, 
 J. V. Ortiz, A. F. Izmaylov, J. L. Sonnenberg, D. Williams-Young, 
 F. Ding, F. Lipparini, F. Egidi, J. Goings, B. Peng, A. Petrone, 
 T. Henderson, D. Ranasinghe, V. G. Zakrzewski, J. Gao, N. Rega, 
 G. Zheng, W. Liang, M. Hada, M. Ehara, K. Toyota, R. Fukuda, 
 J. Hasegawa, M. Ishida, T. Nakajima, Y. Honda, O. Kitao, H. Nakai, 
 T. Vreven, K. Throssell, J. A. Montgomery, Jr., J. E. Peralta, 
 F. Ogliaro, M. J. Bearpark, J. J. Heyd, E. N. Brothers, K. N. Kudin, 
 V. N. Staroverov, T. A. Keith, R. Kobayashi, J. Normand, 
 K. Raghavachari, A. P. Rendell, J. C. Burant, S. S. Iyengar, 
 J. Tomasi, M. Cossi, J. M. Millam, M. Klene, C. Adamo, R. Cammi, 
 J. W. Ochterski, R. L. Martin, K. Morokuma, O. Farkas, 
 J. B. Foresman, and D. J. Fox, Gaussian, Inc., Wallingford CT, 2016.
 
 ******************************************
 Gaussian 16:  ES64L-G16RevA.03 25-Dec-2016
                 9-Jul-2023 
 ******************************************
 %chk=checkpoint.chk
 %mem=15GB
 %nprocshared=20
 Will use up to   20 processors via shared memory.
 ------------------------------------------------------------------
 #p opt=(modredundant,maxcycle=512) wb97xd/6-31g(d,p) integral=fine
 ------------------------------------------------------------------
 1/6=512,18=120,19=15,26=3,38=1/1,3;
 2/9=110,12=2,17=6,18=5,40=1/2;
 3/5=1,6=6,7=101,11=2,25=1,30=1,71=1,74=-58,75=-4/1,2,3;
 4//1;
 5/5=2,38=5/2;
 6/7=2,8=2,9=2,10=2,28=1/1;
 7//1,2,3,16;
 1/6=512,18=20,19=15,26=3/3(2);
 2/9=110/2;
 99//99;
 2/9=110/2;
 3/5=1,6=6,7=101,11=2,25=1,30=1,71=1,74=-58,75=-4/1,2,3;
 4/5=5,16=3,69=1/1;
 5/5=2,38=5/2;
 7//1,2,3,16;
 1/6=512,18=20,19=15,26=3/3(-5);
 2/9=110/2;
 6/7=2,8=2,9=2,10=2,19=2,28=1/1;
 99/9=1/99;
 Leave Link    1 at Sun Jul  9 12:51:11 2023, MaxMem=  2013265920 cpu:               0.9 elap:               0.1
 (Enter /home/software/GAUSSIAN/g16_new_pgi/l101.exe)
 ----------
 water scan
 ----------
 Symbolic Z-matrix:
 Charge =  0 Multiplicity = 1
 O                     0.        0.        0.13581 
 H                     0.        0.86539  -0.54323 
 H                     0.       -0.86539  -0.54323 
 
 The following ModRedundant input section has been read:
 B       1       2 S   5 0.5000                                                
 
 ITRead=  0  0  0
 MicOpt= -1 -1 -1
 NAtoms=      3 NQM=        3 NQMF=       0 NMMI=      0 NMMIF=      0
                NMic=       0 NMicF=      0.
                    Isotopes and Nuclear Properties:
 (Nuclear quadrupole moments (NQMom) in fm**2, nuclear magnetic moments (NMagM)
  in nuclear magnetons)

  Atom         1           2           3
 IAtWgt=          16           1           1
 AtmWgt=  15.9949146   1.0078250   1.0078250
 NucSpn=           0           1           1
 AtZEff=  -0.0000000  -0.0000000  -0.0000000
 NQMom=    0.0000000   0.0000000   0.0000000
 NMagM=    0.0000000   2.7928460   2.7928460
 AtZNuc=   8.0000000   1.0000000   1.0000000
 Leave Link  101 at Sun Jul  9 12:51:11 2023, MaxMem=  2013265920 cpu:               6.6 elap:               0.4
 (Enter /home/software/GAUSSIAN/g16_new_pgi/l103.exe)

 GradGradGradGradGradGradGradGradGradGradGradGradGradGradGradGradGradGrad
 Berny optimization.
 Initialization pass.
                           ----------------------------
                           !    Initial Parameters    !
                           ! (Angstroms and Degrees)  !
 --------------------------                            --------------------------
 ! Name  Definition              Value          Derivative Info.                !
 --------------------------------------------------------------------------------
 ! R1    R(1,2)                  1.1            Scan                            !
 ! R2    R(1,3)                  1.1            estimate D2E/DX2                !
 ! A1    A(2,1,3)              103.7601         estimate D2E/DX2                !
 --------------------------------------------------------------------------------
 Trust Radius=3.00D-01 FncErr=1.00D-07 GrdErr=1.00D-06 EigMax=2.50D+02 EigMin=1.00D-04
 Number of optimizations in scan=   6
 Number of steps in this run=    100 maximum allowed number of steps=    100.
 GradGradGradGradGradGradGradGradGradGradGradGradGradGradGradGradGradGrad

 Leave Link  103 at Sun Jul  9 12:51:11 2023, MaxMem=  2013265920 cpu:               0.3 elap:               0.0
 (Enter /home/software/GAUSSIAN/g16_new_pgi/l202.exe)
                          Input orientation:                          
 ---------------------------------------------------------------------
 Center     Atomic      Atomic             Coordinates (Angstroms)
 Number     Number       Type             X           Y           Z
 ---------------------------------------------------------------------
      1          8           0        0.000000    0.000000    0.135808
      2          1           0        0.000000    0.865392   -0.543233
      3          1           0        0.000000   -0.865392   -0.543233
 ---------------------------------------------------------------------
                    Distance matrix (angstroms):
                    1          2          3
     1  O    0.000000
     2  H    1.100000   0.000000
     3  H    1.100000   1.730784   0.000000
 Stoichiometry    H2O
 Framework group  C2V[C2(O),SGV(H2)]
 Deg. of freedom     2
 Full point group                 C2V     NOp   4
 Largest Abelian subgroup         C2V     NOp   4
 Largest concise Abelian subgroup C2      NOp   2
                         Standard orientation:                         
 ---------------------------------------------------------------------
 Center     Atomic      Atomic             Coordinates (Angstroms)
 Number     Number       Type             X           Y           Z
 ---------------------------------------------------------------------
      1          8           0        0.000000   -0.000000    0.135808
      2          1           0        0.000000    0.865392   -0.543233
      3          1           0       -0.000000   -0.865392   -0.543233
 ---------------------------------------------------------------------
 Rotational constants (GHZ):         612.2876072         334.7929535         216.4436532
 Leave Link  202 at Sun Jul  9 12:51:12 2023, MaxMem=  2013265920 cpu:               0.3 elap:               0.0
 (Enter /home/software/GAUSSIAN/g16_new_pgi/l301.exe)
 Standard basis: 6-31G(d,p) (6D, 7F)
 Ernie: Thresh=  0.10000D-02 Tol=  0.10000D-05 Strict=F.
 There are    12 symmetry adapted cartesian basis functions of A1  symmetry.
 There are     2 symmetry adapted cartesian basis functions of A2  symmetry.
 There are     4 symmetry adapted cartesian basis functions of B1  symmetry.
 There are     7 symmetry adapted cartesian basis functions of B2  symmetry.
 There are    12 symmetry adapted basis functions of A1  symmetry.
 There are     2 symmetry adapted basis functions of A2  symmetry.
 There are     4 symmetry adapted basis functions of B1  symmetry.
 There are     7 symmetry adapted basis functions of B2  symmetry.
    25 basis functions,    42 primitive gaussians,    25 cartesian basis functions
     5 alpha electrons        5 beta electrons
       nuclear repulsion energy         8.0028673131 Hartrees.
 IExCor= 4639 DFT=T Ex+Corr=wB97XD ExCW=0 ScaHFX=  1.000000
 ScaDFX=  1.000000  1.000000  1.000000  1.000000 ScalE2=  1.000000  1.000000
 IRadAn=      4 IRanWt=     -1 IRanGd=            0 ICorTp=0 IEmpDi=121
 HFx  wShort=  0.000000 wLong=  0.200000 cFull=  0.222036 cShort=  0.000000 cLong=  0.777964
 DFx  wShort=  0.000000 wLong=  0.200000 cFull=  0.000000 cShort=  0.000000 cLong=  1.000000
 NAtoms=    3 NActive=    3 NUniq=    2 SFac= 2.25D+00 NAtFMM=   60 NAOKFM=F Big=F
 Integral buffers will be    131072 words long.
 Raffenetti 2 integral format.
 Two-electron integral symmetry is turned on.
 R6Disp:  Grimme-D2 Dispersion energy=       -0.0000585760 Hartrees.
 Nuclear repulsion after empirical dispersion term =        8.0028087370 Hartrees.
 Leave Link  301 at Sun Jul  9 12:51:12 2023, MaxMem=  2013265920 cpu:               1.2 elap:               0.1
 (Enter /home/software/GAUSSIAN/g16_new_pgi/l302.exe)
 NPDir=0 NMtPBC=     1 NCelOv=     1 NCel=       1 NClECP=     1 NCelD=      1
         NCelK=      1 NCelE2=     1 NClLst=     1 CellRange=     0.0.
 One-electron integrals computed using PRISM.
 One-electron integral symmetry used in STVInt
 NBasis=    25 RedAO= T EigKep=  2.68D-02  NBF=    12     2     4     7
 NBsUse=    25 1.00D-06 EigRej= -1.00D+00 NBFU=    12     2     4     7
 Precomputing XC quadrature grid using
 IXCGrd= 4 IRadAn=           4 IRanWt=          -1 IRanGd=           0 AccXCQ= 0.00D+00.
 Generated NRdTot=       0 NPtTot=           0 NUsed=           0 NTot=          32
 NSgBfM=    25    25    25    25    25 MxSgAt=     3 MxSgA2=     3.
 Leave Link  302 at Sun Jul  9 12:51:12 2023, MaxMem=  2013265920 cpu:               2.9 elap:               0.2
 (Enter /home/software/GAUSSIAN/g16_new_pgi/l303.exe)
 DipDrv:  MaxL=1.
 Leave Link  303 at Sun Jul  9 12:51:13 2023, MaxMem=  2013265920 cpu:               0.6 elap:               0.1
 (Enter /home/software/GAUSSIAN/g16_new_pgi/l401.exe)
 ExpMin= 1.61D-01 ExpMax= 5.48D+03 ExpMxC= 8.25D+02 IAcc=2 IRadAn=         4 AccDes= 0.00D+00
 Harris functional with IExCor= 4639 and IRadAn=       4 diagonalized for initial guess.
 HarFok:  IExCor= 4639 AccDes= 0.00D+00 IRadAn=         4 IDoV= 1 UseB2=F ITyADJ=14
 ICtDFT=  3500011 ScaDFX=  1.000000  1.000000  1.000000  1.000000
 FoFCou: FMM=F IPFlag=           0 FMFlag=      100000 FMFlg1=           0
         NFxFlg=           0 DoJE=T BraDBF=F KetDBF=T FulRan=T
         wScrn=  0.000000 ICntrl=       500 IOpCl=  0 I1Cent=   200000004 NGrid=           0
         NMat0=    1 NMatS0=      1 NMatT0=    0 NMatD0=    1 NMtDS0=    0 NMtDT0=    0
 Petite list used in FoFCou.
 Harris En= -73.5878911218696    
 JPrj=0 DoOrth=F DoCkMO=F.
 Initial guess orbital symmetries:
       Occupied  (A1) (A1) (B2) (A1) (B1)
       Virtual   (A1) (B2) (B2) (A1) (A1) (B1) (B2) (A1) (A2) (A1)
                 (B1) (A1) (B2) (B2) (A2) (B1) (A1) (A1) (B2) (A1)
 The electronic state of the initial guess is 1-A1.
 Leave Link  401 at Sun Jul  9 12:51:13 2023, MaxMem=  2013265920 cpu:               3.3 elap:               0.2
 (Enter /home/software/GAUSSIAN/g16_new_pgi/l502.exe)
 Keep R1 ints in memory in symmetry-blocked form, NReq=17298779.
 FoFCou: FMM=F IPFlag=           0 FMFlag=           0 FMFlg1=           0
         NFxFlg=           0 DoJE=F BraDBF=F KetDBF=F FulRan=T
         wScrn=  0.000000 ICntrl=       600 IOpCl=  0 I1Cent=           0 NGrid=           0
         NMat0=    1 NMatS0=    325 NMatT0=    0 NMatD0=    1 NMtDS0=    0 NMtDT0=    0
 Petite list used in FoFCou.
 Closed shell SCF:
 Using DIIS extrapolation, IDIIS=  1040.
 NGot=  2013265920 LenX=  2013247426 LenY=  2013246360
 Requested convergence on RMS density matrix=1.00D-08 within 128 cycles.
 Requested convergence on MAX density matrix=1.00D-06.
 Requested convergence on             energy=1.00D-06.
 No special actions if energy rises.
 Integral accuracy reduced to 1.0D-05 until final iterations.

 Cycle   1  Pass 0  IDiag  1:
 E= -76.3568666190401    
 DIIS: error= 4.77D-02 at cycle   1 NSaved=   1.
 NSaved= 1 IEnMin= 1 EnMin= -76.3568666190401     IErMin= 1 ErrMin= 4.77D-02
 ErrMax= 4.77D-02  0.00D+00 EMaxC= 1.00D-01 BMatC= 4.47D-02 BMatP= 4.47D-02
 IDIUse=3 WtCom= 5.23D-01 WtEn= 4.77D-01
 Coeff-Com:  0.100D+01
 Coeff-En:   0.100D+01
 Coeff:      0.100D+01
 Gap=     0.490 Goal=   None    Shift=    0.000
 GapD=    0.490 DampG=2.000 DampE=0.500 DampFc=1.0000 IDamp=-1.
 RMSDP=4.46D-03 MaxDP=3.64D-02              OVMax= 3.31D-02

 Cycle   2  Pass 0  IDiag  1:
 E= -76.3672188232782     Delta-E=       -0.010352204238 Rises=F Damp=F
 DIIS: error= 9.71D-03 at cycle   2 NSaved=   2.
 NSaved= 2 IEnMin= 2 EnMin= -76.3672188232782     IErMin= 2 ErrMin= 9.71D-03
 ErrMax= 9.71D-03  0.00D+00 EMaxC= 1.00D-01 BMatC= 3.31D-03 BMatP= 4.47D-02
 IDIUse=3 WtCom= 9.03D-01 WtEn= 9.71D-02
 Coeff-Com:  0.155D+00 0.845D+00
 Coeff-En:   0.000D+00 0.100D+01
 Coeff:      0.140D+00 0.860D+00
 Gap=     0.469 Goal=   None    Shift=    0.000
 RMSDP=2.23D-03 MaxDP=2.22D-02 DE=-1.04D-02 OVMax= 2.46D-02

 Cycle   3  Pass 0  IDiag  1:
 E= -76.3679812990445     Delta-E=       -0.000762475766 Rises=F Damp=F
 DIIS: error= 9.11D-03 at cycle   3 NSaved=   3.
 NSaved= 3 IEnMin= 3 EnMin= -76.3679812990445     IErMin= 3 ErrMin= 9.11D-03
 ErrMax= 9.11D-03  0.00D+00 EMaxC= 1.00D-01 BMatC= 2.28D-03 BMatP= 3.31D-03
 IDIUse=3 WtCom= 9.09D-01 WtEn= 9.11D-02
 Coeff-Com:  0.168D-01 0.460D+00 0.523D+00
 Coeff-En:   0.000D+00 0.405D+00 0.595D+00
 Coeff:      0.153D-01 0.455D+00 0.530D+00
 Gap=     0.486 Goal=   None    Shift=    0.000
 RMSDP=1.13D-03 MaxDP=1.03D-02 DE=-7.62D-04 OVMax= 1.18D-02

 Cycle   4  Pass 0  IDiag  1:
 E= -76.3695754628715     Delta-E=       -0.001594163827 Rises=F Damp=F
 DIIS: error= 4.47D-04 at cycle   4 NSaved=   4.
 NSaved= 4 IEnMin= 4 EnMin= -76.3695754628715     IErMin= 4 ErrMin= 4.47D-04
 ErrMax= 4.47D-04  0.00D+00 EMaxC= 1.00D-01 BMatC= 4.46D-06 BMatP= 2.28D-03
 IDIUse=3 WtCom= 9.96D-01 WtEn= 4.47D-03
 Coeff-Com: -0.422D-04 0.631D-01 0.939D-01 0.843D+00
 Coeff-En:   0.000D+00 0.000D+00 0.000D+00 0.100D+01
 Coeff:     -0.420D-04 0.628D-01 0.935D-01 0.844D+00
 Gap=     0.485 Goal=   None    Shift=    0.000
 RMSDP=6.17D-05 MaxDP=5.63D-04 DE=-1.59D-03 OVMax= 8.42D-04

 Cycle   5  Pass 0  IDiag  1:
 E= -76.3695794297274     Delta-E=       -0.000003966856 Rises=F Damp=F
 DIIS: error= 6.42D-05 at cycle   5 NSaved=   5.
 NSaved= 5 IEnMin= 5 EnMin= -76.3695794297274     IErMin= 5 ErrMin= 6.42D-05
 ErrMax= 6.42D-05  0.00D+00 EMaxC= 1.00D-01 BMatC= 1.02D-07 BMatP= 4.46D-06
 IDIUse=1 WtCom= 1.00D+00 WtEn= 0.00D+00
 Coeff-Com: -0.120D-03-0.164D-01-0.269D-01-0.103D+00 0.115D+01
 Coeff:     -0.120D-03-0.164D-01-0.269D-01-0.103D+00 0.115D+01
 Gap=     0.486 Goal=   None    Shift=    0.000
 RMSDP=1.38D-05 MaxDP=1.21D-04 DE=-3.97D-06 OVMax= 1.93D-04

 Cycle   6  Pass 0  IDiag  1:
 E= -76.3695795594747     Delta-E=       -0.000000129747 Rises=F Damp=F
 DIIS: error= 8.84D-06 at cycle   6 NSaved=   6.
 NSaved= 6 IEnMin= 6 EnMin= -76.3695795594747     IErMin= 6 ErrMin= 8.84D-06
 ErrMax= 8.84D-06  0.00D+00 EMaxC= 1.00D-01 BMatC= 1.53D-09 BMatP= 1.02D-07
 IDIUse=1 WtCom= 1.00D+00 WtEn= 0.00D+00
 Coeff-Com:  0.586D-04 0.477D-02 0.740D-02 0.297D-01-0.386D+00 0.134D+01
 Coeff:      0.586D-04 0.477D-02 0.740D-02 0.297D-01-0.386D+00 0.134D+01
 Gap=     0.486 Goal=   None    Shift=    0.000
 RMSDP=4.45D-06 MaxDP=3.19D-05 DE=-1.30D-07 OVMax= 5.71D-05

 Initial convergence to 1.0D-05 achieved.  Increase integral accuracy.
 Cycle   7  Pass 1  IDiag  1:
 E= -76.3695337227016     Delta-E=        0.000045836773 Rises=F Damp=F
 DIIS: error= 1.28D-04 at cycle   1 NSaved=   1.
 NSaved= 1 IEnMin= 1 EnMin= -76.3695337227016     IErMin= 1 ErrMin= 1.28D-04
 ErrMax= 1.28D-04  0.00D+00 EMaxC= 1.00D-01 BMatC= 2.35D-07 BMatP= 2.35D-07
 IDIUse=3 WtCom= 9.99D-01 WtEn= 1.28D-03
 Coeff-Com:  0.100D+01
 Coeff-En:   0.100D+01
 Coeff:      0.100D+01
 Gap=     0.486 Goal=   None    Shift=    0.000
 RMSDP=4.45D-06 MaxDP=3.19D-05 DE= 4.58D-05 OVMax= 1.25D-04

 Cycle   8  Pass 1  IDiag  1:
 E= -76.3695339057582     Delta-E=       -0.000000183057 Rises=F Damp=F
 DIIS: error= 1.20D-05 at cycle   2 NSaved=   2.
 NSaved= 2 IEnMin= 2 EnMin= -76.3695339057582     IErMin= 2 ErrMin= 1.20D-05
 ErrMax= 1.20D-05  0.00D+00 EMaxC= 1.00D-01 BMatC= 4.13D-09 BMatP= 2.35D-07
 IDIUse=1 WtCom= 1.00D+00 WtEn= 0.00D+00
 Coeff-Com: -0.633D-01 0.106D+01
 Coeff:     -0.633D-01 0.106D+01
 Gap=     0.486 Goal=   None    Shift=    0.000
 RMSDP=2.15D-06 MaxDP=2.13D-05 DE=-1.83D-07 OVMax= 1.90D-05

 Cycle   9  Pass 1  IDiag  1:
 E= -76.3695339077521     Delta-E=       -0.000000001994 Rises=F Damp=F
 DIIS: error= 7.13D-06 at cycle   3 NSaved=   3.
 NSaved= 3 IEnMin= 3 EnMin= -76.3695339077521     IErMin= 3 ErrMin= 7.13D-06
 ErrMax= 7.13D-06  0.00D+00 EMaxC= 1.00D-01 BMatC= 1.62D-09 BMatP= 4.13D-09
 IDIUse=1 WtCom= 1.00D+00 WtEn= 0.00D+00
 Coeff-Com: -0.360D-01 0.428D+00 0.608D+00
 Coeff:     -0.360D-01 0.428D+00 0.608D+00
 Gap=     0.486 Goal=   None    Shift=    0.000
 RMSDP=1.16D-06 MaxDP=1.07D-05 DE=-1.99D-09 OVMax= 1.27D-05

 Cycle  10  Pass 1  IDiag  1:
 E= -76.3695339087980     Delta-E=       -0.000000001046 Rises=F Damp=F
 DIIS: error= 2.38D-06 at cycle   4 NSaved=   4.
 NSaved= 4 IEnMin= 4 EnMin= -76.3695339087980     IErMin= 4 ErrMin= 2.38D-06
 ErrMax= 2.38D-06  0.00D+00 EMaxC= 1.00D-01 BMatC= 1.56D-10 BMatP= 1.62D-09
 IDIUse=1 WtCom= 1.00D+00 WtEn= 0.00D+00
 Coeff-Com: -0.947D-02 0.760D-01 0.266D+00 0.668D+00
 Coeff:     -0.947D-02 0.760D-01 0.266D+00 0.668D+00
 Gap=     0.486 Goal=   None    Shift=    0.000
 RMSDP=2.84D-07 MaxDP=2.77D-06 DE=-1.05D-09 OVMax= 2.86D-06

 Cycle  11  Pass 1  IDiag  1:
 E= -76.3695339089069     Delta-E=       -0.000000000109 Rises=F Damp=F
 DIIS: error= 8.39D-08 at cycle   5 NSaved=   5.
 NSaved= 5 IEnMin= 5 EnMin= -76.3695339089069     IErMin= 5 ErrMin= 8.39D-08
 ErrMax= 8.39D-08  0.00D+00 EMaxC= 1.00D-01 BMatC= 1.98D-13 BMatP= 1.56D-10
 IDIUse=1 WtCom= 1.00D+00 WtEn= 0.00D+00
 Coeff-Com:  0.119D-02-0.127D-01-0.230D-01-0.368D-01 0.107D+01
 Coeff:      0.119D-02-0.127D-01-0.230D-01-0.368D-01 0.107D+01
 Gap=     0.486 Goal=   None    Shift=    0.000
 RMSDP=3.42D-08 MaxDP=1.98D-07 DE=-1.09D-10 OVMax= 3.94D-07

 Cycle  12  Pass 1  IDiag  1:
 E= -76.3695339089073     Delta-E=       -0.000000000000 Rises=F Damp=F
 DIIS: error= 2.48D-08 at cycle   6 NSaved=   6.
 NSaved= 6 IEnMin= 6 EnMin= -76.3695339089073     IErMin= 6 ErrMin= 2.48D-08
 ErrMax= 2.48D-08  0.00D+00 EMaxC= 1.00D-01 BMatC= 1.43D-14 BMatP= 1.98D-13
 IDIUse=1 WtCom= 1.00D+00 WtEn= 0.00D+00
 Coeff-Com: -0.168D-03 0.205D-02 0.323D-02-0.562D-02-0.229D+00 0.123D+01
 Coeff:     -0.168D-03 0.205D-02 0.323D-02-0.562D-02-0.229D+00 0.123D+01
 Gap=     0.486 Goal=   None    Shift=    0.000
 RMSDP=8.17D-09 MaxDP=4.67D-08 DE=-3.69D-13 OVMax= 9.15D-08

 SCF Done:  E(RwB97XD) =  -76.3695339089     A.U. after   12 cycles
            NFock= 12  Conv=0.82D-08     -V/T= 2.0125
 KE= 7.542881037759D+01 PE=-1.964127222064D+02 EE= 3.661156918286D+01
 Leave Link  502 at Sun Jul  9 12:51:14 2023, MaxMem=  2013265920 cpu:               5.4 elap:               0.3
 (Enter /home/software/GAUSSIAN/g16_new_pgi/l601.exe)
 Copying SCF densities to generalized density rwf, IOpCl= 0 IROHF=0.

 **********************************************************************

            Population analysis using the SCF density.

 **********************************************************************

 Orbital symmetries:
       Occupied  (A1) (A1) (B2) (A1) (B1)
       Virtual   (A1) (B2) (B2) (A1) (A1) (B1) (B2) (A1) (A2) (A1)
                 (B1) (A1) (B2) (B2) (A2) (B1) (A1) (A1) (B2) (A1)
 The electronic state is 1-A1.
 Alpha  occ. eigenvalues --  -19.28104  -1.04860  -0.55627  -0.44957  -0.37168
 Alpha virt. eigenvalues --    0.11397   0.18885   0.81641   0.82532   0.97389
 Alpha virt. eigenvalues --    0.98327   1.10889   1.23386   1.61989   1.63368
 Alpha virt. eigenvalues --    1.73690   2.14881   2.23830   2.27091   2.58326
 Alpha virt. eigenvalues --    2.60350   2.86622   3.20845   3.52739   3.73432
          Condensed to atoms (all electrons):
               1          2          3
     1  O    8.142033   0.246595   0.246595
     2  H    0.246595   0.452861  -0.017067
     3  H    0.246595  -0.017067   0.452861
 Mulliken charges:
               1
     1  O   -0.635222
     2  H    0.317611
     3  H    0.317611
 Sum of Mulliken charges =   0.00000
 Mulliken charges with hydrogens summed into heavy atoms:
               1
     1  O    0.000000
 Electronic spatial extent (au):  <R**2>=             20.8943
 Charge=              0.0000 electrons
 Dipole moment (field-independent basis, Debye):
    X=             -0.0000    Y=              0.0000    Z=             -2.1380  Tot=              2.1380
 Quadrupole moment (field-independent basis, Debye-Ang):
   XX=             -7.4091   YY=             -3.9876   ZZ=             -5.9690
   XY=              0.0000   XZ=              0.0000   YZ=             -0.0000
 Traceless Quadrupole moment (field-independent basis, Debye-Ang):
   XX=             -1.6205   YY=              1.8010   ZZ=             -0.1804
   XY=              0.0000   XZ=              0.0000   YZ=             -0.0000
 Octapole moment (field-independent basis, Debye-Ang**2):
  XXX=              0.0000  YYY=              0.0000  ZZZ=             -1.0851  XYY=             -0.0000
  XXY=             -0.0000  XXZ=             -0.2147  XZZ=             -0.0000  YZZ=             -0.0000
  YYZ=             -1.6362  XYZ=             -0.0000
 Hexadecapole moment (field-independent basis, Debye-Ang**3):
 XXXX=             -5.4539 YYYY=             -7.0785 ZZZZ=             -7.1629 XXXY=             -0.0000
 XXXZ=             -0.0000 YYYX=             -0.0000 YYYZ=             -0.0000 ZZZX=             -0.0000
 ZZZY=              0.0000 XXYY=             -2.5116 XXZZ=             -2.1871 YYZZ=             -1.8259
 XXYZ=              0.0000 YYXZ=              0.0000 ZZXY=              0.0000
 N-N= 8.002808737003D+00 E-N=-1.964127225722D+02  KE= 7.542881037759D+01
 Symmetry A1   KE= 6.751597783261D+01
 Symmetry A2   KE= 4.253402840714D-35
 Symmetry B1   KE= 4.605650776235D+00
 Symmetry B2   KE= 3.307181768739D+00
 No NMR shielding tensors so no spin-rotation constants.
 Leave Link  601 at Sun Jul  9 12:51:14 2023, MaxMem=  2013265920 cpu:               2.9 elap:               0.2
 (Enter /home/software/GAUSSIAN/g16_new_pgi/l701.exe)
 ... and contract with generalized density number  0.
 Compute integral first derivatives.
 R6Disp: Adding Grimme-D2 dispersion energy 1st derivatives to the gradient.
 Leave Link  701 at Sun Jul  9 12:51:15 2023, MaxMem=  2013265920 cpu:               2.7 elap:               0.2
 (Enter /home/software/GAUSSIAN/g16_new_pgi/l702.exe)
 L702 exits ... SP integral derivatives will be done elsewhere.
 Leave Link  702 at Sun Jul  9 12:51:15 2023, MaxMem=  2013265920 cpu:               1.2 elap:               0.1
 (Enter /home/software/GAUSSIAN/g16_new_pgi/l703.exe)
 Integral derivatives from FoFJK, PRISM(SPDF).
 Compute integral first derivatives, UseDBF=F ICtDFT=           0.
 Calling FoFJK, ICntrl=      2127 FMM=F ISym2X=1 I1Cent= 0 IOpClX= 0 NMat=1 NMatS=1 NMatT=0.
 FoFJK:  IHMeth= 1 ICntrl=    2127 DoSepK=T KAlg= 0 I1Cent=           0 FoldK=F
 IRaf=         1 NMat=       1 IRICut=       1 DoRegI=T DoRafI=F ISym2E= 1 IDoP0=0 IntGTp=1.
 FoFCou: FMM=F IPFlag=           0 FMFlag=      100000 FMFlg1=         800
         NFxFlg=           0 DoJE=F BraDBF=F KetDBF=F FulRan=T
         wScrn=  0.000000 ICntrl=      2527 IOpCl=  0 I1Cent=           0 NGrid=           0
         NMat0=    1 NMatS0=      1 NMatT0=    0 NMatD0=    1 NMtDS0=    0 NMtDT0=    0
 Petite list used in FoFCou.
 Leave Link  703 at Sun Jul  9 12:51:15 2023, MaxMem=  2013265920 cpu:               6.5 elap:               0.3
 (Enter /home/software/GAUSSIAN/g16_new_pgi/l716.exe)
 Dipole        =-6.10433983D-17 0.00000000D+00-8.41138155D-01
 ***** Axes restored to original set *****
 -------------------------------------------------------------------
 Center     Atomic                   Forces (Hartrees/Bohr)
 Number     Number              X              Y              Z
 -------------------------------------------------------------------
      1        8          -0.000000000   -0.000000000   -0.103532027
      2        1           0.000000000   -0.075657482    0.051766013
      3        1           0.000000000    0.075657482    0.051766013
 -------------------------------------------------------------------
 Cartesian Forces:  Max     0.103532027 RMS     0.055303637
 Leave Link  716 at Sun Jul  9 12:51:16 2023, MaxMem=  2013265920 cpu:               0.8 elap:               0.1
 (Enter /home/software/GAUSSIAN/g16_new_pgi/l103.exe)

 GradGradGradGradGradGradGradGradGradGradGradGradGradGradGradGradGradGrad
 Berny optimization.
 FormGI is forming the generalized inverse of G from B-inverse, IUseBI=4.
 Internal  Forces:  Max     0.091476932 RMS     0.075034469
 Search for a local minimum.
 Step number   1 out of a maximum of  100 on scan point     1 out of     6
 All quantities printed in internal units (Hartrees-Bohrs-Radians)
 RMS Force = .65278D-01 SwitMx=.10000D-02 MixMth= 1
 Mixed Optimization -- RFO/linear search
 Second derivative matrix not updated -- first step.
 The second derivative matrix:
                          R1        R2        A1
           R1           0.33682
           R2           0.00000   0.33682
           A1           0.00000   0.00000   0.16000
 ITU=  0
     Eigenvalues ---    0.16000   0.336821000.00000
 RFO step:  Lambda=-2.40290577D-02 EMin= 1.60000000D-01
 Linear search not attempted -- first point.
 Iteration  1 RMS(Cart)=  0.11362805 RMS(Int)=  0.03303835
 Iteration  2 RMS(Cart)=  0.02403167 RMS(Int)=  0.00008560
 Iteration  3 RMS(Cart)=  0.00006503 RMS(Int)=  0.00000000
 Iteration  4 RMS(Cart)=  0.00000000 RMS(Int)=  0.00000000
 Iteration  1 RMS(Cart)=  0.00000000 RMS(Int)=  0.00000000
 ITry= 1 IFail=0 DXMaxC= 1.85D-01 DCOld= 1.00D+10 DXMaxT= 3.00D-01 DXLimC= 3.00D+00 Rises=F
 ClnCor:  largest displacement from symmetrization is 1.16D-01 for atom     3.
          Exceeds limit of 1.00D-01 so symmetrization was rejected.
 Variable       Old X    -DE/DX   Delta X   Delta X   Delta X     New X
                                 (Linear)    (Quad)   (Total)
    R1        2.07870  -0.09148   0.00000   0.00000   0.00000   2.07870
    R2        2.07870  -0.09148   0.00000  -0.25350  -0.25350   1.82519
    A1        1.81095  -0.01243   0.00000  -0.06753  -0.06753   1.74342
         Item               Value     Threshold  Converged?
 Maximum Force            0.091477     0.000450     NO 
 RMS     Force            0.065278     0.000300     NO 
 Maximum Displacement     0.184524     0.001800     NO 
 RMS     Displacement     0.134565     0.001200     NO 
 Predicted change in Energy=-1.284143D-02
 Lowest energy point so far.  Saving SCF results.
 GradGradGradGradGradGradGradGradGradGradGradGradGradGradGradGradGradGrad

 Leave Link  103 at Sun Jul  9 12:51:16 2023, MaxMem=  2013265920 cpu:               0.5 elap:               0.0
 (Enter /home/software/GAUSSIAN/g16_new_pgi/l202.exe)
                          Input orientation:                          
 ---------------------------------------------------------------------
 Center     Atomic      Atomic             Coordinates (Angstroms)
 Number     Number       Type             X           Y           Z
 ---------------------------------------------------------------------
      1          8           0       -0.000000   -0.047666    0.125008
      2          1           0        0.000000    0.815413   -0.556971
      3          1           0       -0.000000   -0.767746   -0.518695
 ---------------------------------------------------------------------
                    Distance matrix (angstroms):
                    1          2          3
     1  O    0.000000
     2  H    1.100000   0.000000
     3  H    0.965852   1.583622   0.000000
 Stoichiometry    H2O
 Framework group  CS[SG(H2O)]
 Deg. of freedom     3
 Full point group                 CS      NOp   2
 Omega: Change in point group or standard orientation.

 Old FWG=C02V [C2(O1),SGV(H2)]
 New FWG=CS   [SG(H2O1)]
 RotChk:  IX=1 Diff= 2.41D+00
 Largest Abelian subgroup         CS      NOp   2
 Largest concise Abelian subgroup C1      NOp   1
                         Standard orientation:                         
 ---------------------------------------------------------------------
 Center     Atomic      Atomic             Coordinates (Angstroms)
 Number     Number       Type             X           Y           Z
 ---------------------------------------------------------------------
      1          8           0        0.000000   -0.133337   -0.000000
      2          1           0        0.784962    0.637270    0.000000
      3          1           0       -0.784962    0.429428   -0.000000
 ---------------------------------------------------------------------
 Rotational constants (GHZ):         663.9498586         389.2913191         245.4043022
 Leave Link  202 at Sun Jul  9 12:51:16 2023, MaxMem=  2013265920 cpu:               0.6 elap:               0.0
 (Enter /home/software/GAUSSIAN/g16_new_pgi/l301.exe)
 Standard basis: 6-31G(d,p) (6D, 7F)
 Ernie: Thresh=  0.10000D-02 Tol=  0.10000D-05 Strict=F.
 There are    19 symmetry adapted cartesian basis functions of A'  symmetry.
 There are     6 symmetry adapted cartesian basis functions of A"  symmetry.
 There are    19 symmetry adapted basis functions of A'  symmetry.
 There are     6 symmetry adapted basis functions of A"  symmetry.
    25 basis functions,    42 primitive gaussians,    25 cartesian basis functions
     5 alpha electrons        5 beta electrons
       nuclear repulsion energy         8.5658115380 Hartrees.
 IExCor= 4639 DFT=T Ex+Corr=wB97XD ExCW=0 ScaHFX=  1.000000
 ScaDFX=  1.000000  1.000000  1.000000  1.000000 ScalE2=  1.000000  1.000000
 IRadAn=      4 IRanWt=     -1 IRanGd=            0 ICorTp=0 IEmpDi=121
 HFx  wShort=  0.000000 wLong=  0.200000 cFull=  0.222036 cShort=  0.000000 cLong=  0.777964
 DFx  wShort=  0.000000 wLong=  0.200000 cFull=  0.000000 cShort=  0.000000 cLong=  1.000000
 NAtoms=    3 NActive=    3 NUniq=    3 SFac= 1.00D+00 NAtFMM=   60 NAOKFM=F Big=F
 Integral buffers will be    131072 words long.
 Raffenetti 2 integral format.
 Two-electron integral symmetry is turned on.
 R6Disp:  Grimme-D2 Dispersion energy=       -0.0000353555 Hartrees.
 Nuclear repulsion after empirical dispersion term =        8.5657761825 Hartrees.
 Leave Link  301 at Sun Jul  9 12:51:16 2023, MaxMem=  2013265920 cpu:               1.0 elap:               0.1
 (Enter /home/software/GAUSSIAN/g16_new_pgi/l302.exe)
 NPDir=0 NMtPBC=     1 NCelOv=     1 NCel=       1 NClECP=     1 NCelD=      1
         NCelK=      1 NCelE2=     1 NClLst=     1 CellRange=     0.0.
 One-electron integrals computed using PRISM.
 One-electron integral symmetry used in STVInt
 NBasis=    25 RedAO= T EigKep=  2.41D-02  NBF=    19     6
 NBsUse=    25 1.00D-06 EigRej= -1.00D+00 NBFU=    19     6
 Precomputing XC quadrature grid using
 IXCGrd= 4 IRadAn=           4 IRanWt=          -1 IRanGd=           0 AccXCQ= 0.00D+00.
 Generated NRdTot=       0 NPtTot=           0 NUsed=           0 NTot=          32
 NSgBfM=    25    25    25    25    25 MxSgAt=     3 MxSgA2=     3.
 Leave Link  302 at Sun Jul  9 12:51:16 2023, MaxMem=  2013265920 cpu:               2.2 elap:               0.1
 (Enter /home/software/GAUSSIAN/g16_new_pgi/l303.exe)
 DipDrv:  MaxL=1.
 Leave Link  303 at Sun Jul  9 12:51:16 2023, MaxMem=  2013265920 cpu:               0.6 elap:               0.1
 (Enter /home/software/GAUSSIAN/g16_new_pgi/l401.exe)
 Initial guess from the checkpoint file:  "checkpoint.chk"
 B after Tr=    -0.000000   -0.000000   -0.000000
         Rot=    0.521064   -0.478008   -0.521064    0.478008 Ang=-117.19 deg.
 Guess basis will be translated and rotated to current coordinates.
 JPrj=2 DoOrth=T DoCkMO=T.
 Initial guess orbital symmetries:
       Occupied  (A') (A') (A') (A') (A")
       Virtual   (A') (A') (A') (A') (A') (A") (A') (A') (A") (A')
                 (A") (A') (A') (A') (A") (A") (A') (A') (A') (A')
 The electronic state of the initial guess is 1-A'.
 Generating alternative initial guess.
 ExpMin= 1.61D-01 ExpMax= 5.48D+03 ExpMxC= 8.25D+02 IAcc=1 IRadAn=         1 AccDes= 0.00D+00
 Harris functional with IExCor= 4639 and IRadAn=       1 diagonalized for initial guess.
 HarFok:  IExCor= 4639 AccDes= 0.00D+00 IRadAn=         1 IDoV= 1 UseB2=F ITyADJ=14
 ICtDFT=  3500011 ScaDFX=  1.000000  1.000000  1.000000  1.000000
 FoFCou: FMM=F IPFlag=           0 FMFlag=      100000 FMFlg1=           0
         NFxFlg=           0 DoJE=T BraDBF=F KetDBF=T FulRan=T
         wScrn=  0.000000 ICntrl=       500 IOpCl=  0 I1Cent=   200000004 NGrid=           0
         NMat0=    1 NMatS0=      1 NMatT0=    0 NMatD0=    1 NMtDS0=    0 NMtDT0=    0
 Petite list used in FoFCou.
 Harris En= -73.5884548627510    
 Leave Link  401 at Sun Jul  9 12:51:16 2023, MaxMem=  2013265920 cpu:               4.0 elap:               0.2
 (Enter /home/software/GAUSSIAN/g16_new_pgi/l502.exe)
 Keep R1 ints in memory in symmetry-blocked form, NReq=17298269.
 FoFCou: FMM=F IPFlag=           0 FMFlag=           0 FMFlg1=           0
         NFxFlg=           0 DoJE=F BraDBF=F KetDBF=F FulRan=T
         wScrn=  0.000000 ICntrl=       600 IOpCl=  0 I1Cent=           0 NGrid=           0
         NMat0=    1 NMatS0=    325 NMatT0=    0 NMatD0=    1 NMtDS0=    0 NMtDT0=    0
 Petite list used in FoFCou.
 Closed shell SCF:
 Using DIIS extrapolation, IDIIS=  1040.
 NGot=  2013265920 LenX=  2013233772 LenY=  2013232706
 Requested convergence on RMS density matrix=1.00D-08 within 128 cycles.
 Requested convergence on MAX density matrix=1.00D-06.
 Requested convergence on             energy=1.00D-06.
 No special actions if energy rises.
 Integral accuracy reduced to 1.0D-05 until final iterations.

 Cycle   1  Pass 0  IDiag  1:
 E= -76.3794068533802    
 DIIS: error= 1.01D-02 at cycle   1 NSaved=   1.
 NSaved= 1 IEnMin= 1 EnMin= -76.3794068533802     IErMin= 1 ErrMin= 1.01D-02
 ErrMax= 1.01D-02  0.00D+00 EMaxC= 1.00D-01 BMatC= 3.68D-03 BMatP= 3.68D-03
 IDIUse=3 WtCom= 8.99D-01 WtEn= 1.01D-01
 Coeff-Com:  0.100D+01
 Coeff-En:   0.100D+01
 Coeff:      0.100D+01
 Recover alternate guess density for next cycle.
 RMSDP=4.56D-03 MaxDP=2.87D-02              OVMax= 0.00D+00

 Cycle   2  Pass 0  IDiag  1:
 E= -76.3734075091528     Delta-E=        0.005999344227 Rises=F Damp=F
 Switch densities from cycles 1 and 2 for lowest energy.
 DIIS: error= 5.12D-02 at cycle   2 NSaved=   2.
 NSaved= 2 IEnMin= 1 EnMin= -76.3794068533802     IErMin= 1 ErrMin= 1.01D-02
 ErrMax= 5.12D-02  0.00D+00 EMaxC= 1.00D+00 BMatC= 3.97D-02 BMatP= 3.68D-03
 IDIUse=1 WtCom= 1.00D+00 WtEn= 0.00D+00
 Coeff-Com:  0.952D+00 0.484D-01
 Coeff:      0.952D+00 0.484D-01
 Gap=     0.570 Goal=   None    Shift=    0.000
 RMSDP=2.38D-03 MaxDP=1.72D-02 DE= 6.00D-03 OVMax= 2.53D-02

 Cycle   3  Pass 0  IDiag  1:
 E= -76.3831007159112     Delta-E=       -0.009693206758 Rises=F Damp=F
 DIIS: error= 3.76D-03 at cycle   3 NSaved=   3.
 NSaved= 3 IEnMin= 3 EnMin= -76.3831007159112     IErMin= 3 ErrMin= 3.76D-03
 ErrMax= 3.76D-03  0.00D+00 EMaxC= 1.00D+00 BMatC= 5.85D-04 BMatP= 3.68D-03
 IDIUse=1 WtCom= 1.00D+00 WtEn= 0.00D+00
 Coeff-Com:  0.134D+00 0.343D-01 0.832D+00
 Coeff:      0.134D+00 0.343D-01 0.832D+00
 Gap=     0.500 Goal=   None    Shift=    0.000
 RMSDP=9.03D-04 MaxDP=9.18D-03 DE=-9.69D-03 OVMax= 9.63D-03

 Cycle   4  Pass 0  IDiag  1:
 E= -76.3833819495013     Delta-E=       -0.000281233590 Rises=F Damp=F
 DIIS: error= 2.45D-03 at cycle   4 NSaved=   4.
 NSaved= 4 IEnMin= 4 EnMin= -76.3833819495013     IErMin= 4 ErrMin= 2.45D-03
 ErrMax= 2.45D-03  0.00D+00 EMaxC= 1.00D+00 BMatC= 2.66D-04 BMatP= 5.85D-04
 IDIUse=1 WtCom= 1.00D+00 WtEn= 0.00D+00
 Coeff-Com: -0.380D-01 0.315D-02 0.402D+00 0.633D+00
 Coeff:     -0.380D-01 0.315D-02 0.402D+00 0.633D+00
 Gap=     0.506 Goal=   None    Shift=    0.000
 RMSDP=4.60D-04 MaxDP=4.18D-03 DE=-2.81D-04 OVMax= 4.75D-03

 Cycle   5  Pass 0  IDiag  1:
 E= -76.3835797010479     Delta-E=       -0.000197751547 Rises=F Damp=F
 DIIS: error= 3.56D-04 at cycle   5 NSaved=   5.
 NSaved= 5 IEnMin= 5 EnMin= -76.3835797010479     IErMin= 5 ErrMin= 3.56D-04
 ErrMax= 3.56D-04  0.00D+00 EMaxC= 1.00D+00 BMatC= 3.10D-06 BMatP= 2.66D-04
 IDIUse=1 WtCom= 1.00D+00 WtEn= 0.00D+00
 Coeff-Com: -0.147D-01-0.576D-03 0.845D-02 0.933D-01 0.914D+00
 Coeff:     -0.147D-01-0.576D-03 0.845D-02 0.933D-01 0.914D+00
 Gap=     0.506 Goal=   None    Shift=    0.000
 RMSDP=8.49D-05 MaxDP=5.39D-04 DE=-1.98D-04 OVMax= 9.04D-04

 Cycle   6  Pass 0  IDiag  1:
 E= -76.3835837089016     Delta-E=       -0.000004007854 Rises=F Damp=F
 DIIS: error= 4.78D-05 at cycle   6 NSaved=   6.
 NSaved= 6 IEnMin= 6 EnMin= -76.3835837089016     IErMin= 6 ErrMin= 4.78D-05
 ErrMax= 4.78D-05  0.00D+00 EMaxC= 1.00D+00 BMatC= 7.70D-08 BMatP= 3.10D-06
 IDIUse=1 WtCom= 1.00D+00 WtEn= 0.00D+00
 Coeff-Com:  0.313D-02-0.128D-03-0.206D-01-0.347D-01-0.969D-01 0.115D+01
 Coeff:      0.313D-02-0.128D-03-0.206D-01-0.347D-01-0.969D-01 0.115D+01
 Gap=     0.506 Goal=   None    Shift=    0.000
 RMSDP=3.77D-05 MaxDP=2.83D-04 DE=-4.01D-06 OVMax= 3.33D-04

 Cycle   7  Pass 0  IDiag  1:
 E= -76.3835839469453     Delta-E=       -0.000000238044 Rises=F Damp=F
 DIIS: error= 7.84D-06 at cycle   7 NSaved=   7.
 NSaved= 7 IEnMin= 7 EnMin= -76.3835839469453     IErMin= 7 ErrMin= 7.84D-06
 ErrMax= 7.84D-06  0.00D+00 EMaxC= 1.00D+00 BMatC= 1.91D-09 BMatP= 7.70D-08
 IDIUse=1 WtCom= 1.00D+00 WtEn= 0.00D+00
 Coeff-Com:  0.258D-03 0.297D-04-0.644D-03-0.149D-02-0.203D-01 0.884D-02
 Coeff-Com:  0.101D+01
 Coeff:      0.258D-03 0.297D-04-0.644D-03-0.149D-02-0.203D-01 0.884D-02
 Coeff:      0.101D+01
 Gap=     0.506 Goal=   None    Shift=    0.000
 RMSDP=4.46D-06 MaxDP=3.66D-05 DE=-2.38D-07 OVMax= 4.52D-05

 Initial convergence to 1.0D-05 achieved.  Increase integral accuracy.
 Cycle   8  Pass 1  IDiag  1:
 E= -76.3835296513569     Delta-E=        0.000054295588 Rises=F Damp=F
 DIIS: error= 7.87D-05 at cycle   1 NSaved=   1.
 NSaved= 1 IEnMin= 1 EnMin= -76.3835296513569     IErMin= 1 ErrMin= 7.87D-05
 ErrMax= 7.87D-05  0.00D+00 EMaxC= 1.00D+00 BMatC= 1.46D-07 BMatP= 1.46D-07
 IDIUse=1 WtCom= 1.00D+00 WtEn= 0.00D+00
 Coeff-Com:  0.100D+01
 Coeff:      0.100D+01
 Gap=     0.506 Goal=   None    Shift=    0.000
 RMSDP=4.46D-06 MaxDP=3.66D-05 DE= 5.43D-05 OVMax= 9.12D-05

 Cycle   9  Pass 1  IDiag  1:
 E= -76.3835297530186     Delta-E=       -0.000000101662 Rises=F Damp=F
 DIIS: error= 1.67D-05 at cycle   2 NSaved=   2.
 NSaved= 2 IEnMin= 2 EnMin= -76.3835297530186     IErMin= 2 ErrMin= 1.67D-05
 ErrMax= 1.67D-05  0.00D+00 EMaxC= 1.00D+00 BMatC= 7.88D-09 BMatP= 1.46D-07
 IDIUse=1 WtCom= 1.00D+00 WtEn= 0.00D+00
 Coeff-Com:  0.289D-01 0.971D+00
 Coeff:      0.289D-01 0.971D+00
 Gap=     0.506 Goal=   None    Shift=    0.000
 RMSDP=3.92D-06 MaxDP=3.36D-05 DE=-1.02D-07 OVMax= 4.36D-05

 Cycle  10  Pass 1  IDiag  1:
 E= -76.3835297542027     Delta-E=       -0.000000001184 Rises=F Damp=F
 DIIS: error= 1.36D-05 at cycle   3 NSaved=   3.
 NSaved= 3 IEnMin= 3 EnMin= -76.3835297542027     IErMin= 3 ErrMin= 1.36D-05
 ErrMax= 1.36D-05  0.00D+00 EMaxC= 1.00D+00 BMatC= 7.11D-09 BMatP= 7.88D-09
 IDIUse=1 WtCom= 1.00D+00 WtEn= 0.00D+00
 Coeff-Com: -0.434D-01 0.499D+00 0.544D+00
 Coeff:     -0.434D-01 0.499D+00 0.544D+00
 Gap=     0.506 Goal=   None    Shift=    0.000
 RMSDP=1.95D-06 MaxDP=1.83D-05 DE=-1.18D-09 OVMax= 2.00D-05

 Cycle  11  Pass 1  IDiag  1:
 E= -76.3835297590630     Delta-E=       -0.000000004860 Rises=F Damp=F
 DIIS: error= 7.01D-07 at cycle   4 NSaved=   4.
 NSaved= 4 IEnMin= 4 EnMin= -76.3835297590630     IErMin= 4 ErrMin= 7.01D-07
 ErrMax= 7.01D-07  0.00D+00 EMaxC= 1.00D+00 BMatC= 2.25D-11 BMatP= 7.11D-09
 IDIUse=1 WtCom= 1.00D+00 WtEn= 0.00D+00
 Coeff-Com: -0.876D-02 0.645D-01 0.950D-01 0.849D+00
 Coeff:     -0.876D-02 0.645D-01 0.950D-01 0.849D+00
 Gap=     0.506 Goal=   None    Shift=    0.000
 RMSDP=1.42D-07 MaxDP=9.32D-07 DE=-4.86D-09 OVMax= 1.78D-06

 Cycle  12  Pass 1  IDiag  1:
 E= -76.3835297590830     Delta-E=       -0.000000000020 Rises=F Damp=F
 DIIS: error= 1.05D-07 at cycle   5 NSaved=   5.
 NSaved= 5 IEnMin= 5 EnMin= -76.3835297590830     IErMin= 5 ErrMin= 1.05D-07
 ErrMax= 1.05D-07  0.00D+00 EMaxC= 1.00D+00 BMatC= 4.78D-13 BMatP= 2.25D-11
 IDIUse=1 WtCom= 1.00D+00 WtEn= 0.00D+00
 Coeff-Com:  0.158D-02-0.167D-01-0.238D-01-0.665D-01 0.111D+01
 Coeff:      0.158D-02-0.167D-01-0.238D-01-0.665D-01 0.111D+01
 Gap=     0.506 Goal=   None    Shift=    0.000
 RMSDP=5.31D-08 MaxDP=4.49D-07 DE=-2.01D-11 OVMax= 6.48D-07

 Cycle  13  Pass 1  IDiag  1:
 E= -76.3835297590841     Delta-E=       -0.000000000001 Rises=F Damp=F
 DIIS: error= 2.01D-08 at cycle   6 NSaved=   6.
 NSaved= 6 IEnMin= 6 EnMin= -76.3835297590841     IErMin= 6 ErrMin= 2.01D-08
 ErrMax= 2.01D-08  0.00D+00 EMaxC= 1.00D+00 BMatC= 1.33D-14 BMatP= 4.78D-13
 IDIUse=1 WtCom= 1.00D+00 WtEn= 0.00D+00
 Coeff-Com: -0.130D-03 0.208D-02 0.220D-02-0.280D-02-0.226D+00 0.122D+01
 Coeff:     -0.130D-03 0.208D-02 0.220D-02-0.280D-02-0.226D+00 0.122D+01
 Gap=     0.506 Goal=   None    Shift=    0.000
 RMSDP=1.32D-08 MaxDP=1.15D-07 DE=-1.11D-12 OVMax= 1.54D-07

 Cycle  14  Pass 1  IDiag  1:
 E= -76.3835297590840     Delta-E=        0.000000000000 Rises=F Damp=F
 DIIS: error= 3.03D-09 at cycle   7 NSaved=   7.
 NSaved= 7 IEnMin= 6 EnMin= -76.3835297590841     IErMin= 7 ErrMin= 3.03D-09
 ErrMax= 3.03D-09  0.00D+00 EMaxC= 1.00D+00 BMatC= 2.33D-16 BMatP= 1.33D-14
 IDIUse=1 WtCom= 1.00D+00 WtEn= 0.00D+00
 Coeff-Com: -0.177D-04 0.159D-03 0.212D-03 0.135D-02-0.992D-03-0.856D-01
 Coeff-Com:  0.108D+01
 Coeff:     -0.177D-04 0.159D-03 0.212D-03 0.135D-02-0.992D-03-0.856D-01
 Coeff:      0.108D+01
 Gap=     0.506 Goal=   None    Shift=    0.000
 RMSDP=1.62D-09 MaxDP=1.22D-08 DE= 1.71D-13 OVMax= 2.07D-08

 SCF Done:  E(RwB97XD) =  -76.3835297591     A.U. after   14 cycles
            NFock= 14  Conv=0.16D-08     -V/T= 2.0101
 KE= 7.562246692599D+01 PE=-1.976242819734D+02 EE= 3.705250910585D+01
 Leave Link  502 at Sun Jul  9 12:51:17 2023, MaxMem=  2013265920 cpu:               5.3 elap:               0.3
 (Enter /home/software/GAUSSIAN/g16_new_pgi/l701.exe)
 ... and contract with generalized density number  0.
 Compute integral first derivatives.
 R6Disp: Adding Grimme-D2 dispersion energy 1st derivatives to the gradient.
 Leave Link  701 at Sun Jul  9 12:51:17 2023, MaxMem=  2013265920 cpu:               2.8 elap:               0.2
 (Enter /home/software/GAUSSIAN/g16_new_pgi/l702.exe)
 L702 exits ... SP integral derivatives will be done elsewhere.
 Leave Link  702 at Sun Jul  9 12:51:17 2023, MaxMem=  2013265920 cpu:               0.4 elap:               0.0
 (Enter /home/software/GAUSSIAN/g16_new_pgi/l703.exe)
 Integral derivatives from FoFJK, PRISM(SPDF).
 Compute integral first derivatives, UseDBF=F ICtDFT=           0.
 Calling FoFJK, ICntrl=      2127 FMM=F ISym2X=1 I1Cent= 0 IOpClX= 0 NMat=1 NMatS=1 NMatT=0.
 FoFJK:  IHMeth= 1 ICntrl=    2127 DoSepK=T KAlg= 0 I1Cent=           0 FoldK=F
 IRaf=         1 NMat=       1 IRICut=       1 DoRegI=T DoRafI=F ISym2E= 1 IDoP0=0 IntGTp=1.
 FoFCou: FMM=F IPFlag=           0 FMFlag=      100000 FMFlg1=         800
         NFxFlg=           0 DoJE=F BraDBF=F KetDBF=F FulRan=T
         wScrn=  0.000000 ICntrl=      2527 IOpCl=  0 I1Cent=           0 NGrid=           0
         NMat0=    1 NMatS0=      1 NMatT0=    0 NMatD0=    1 NMtDS0=    0 NMtDT0=    0
 Petite list used in FoFCou.
 Leave Link  703 at Sun Jul  9 12:51:17 2023, MaxMem=  2013265920 cpu:               6.4 elap:               0.3
 (Enter /home/software/GAUSSIAN/g16_new_pgi/l716.exe)
 Dipole        =-5.04209506D-02 8.58940371D-01 1.13205190D-33
 ***** Axes restored to original set *****
 -------------------------------------------------------------------
 Center     Atomic                   Forces (Hartrees/Bohr)
 Number     Number              X              Y              Z
 -------------------------------------------------------------------
      1        8           0.000000000    0.070414046   -0.061457002
      2        1          -0.000000000   -0.070600333    0.058277373
      3        1           0.000000000    0.000186287    0.003179629
 -------------------------------------------------------------------
 Cartesian Forces:  Max     0.070600333 RMS     0.043621994
 Leave Link  716 at Sun Jul  9 12:51:17 2023, MaxMem=  2013265920 cpu:               0.4 elap:               0.0
 (Enter /home/software/GAUSSIAN/g16_new_pgi/l103.exe)

 GradGradGradGradGradGradGradGradGradGradGradGradGradGradGradGradGradGrad
 Berny optimization.
 Using GEDIIS/GDIIS optimizer.
 FormGI is forming the generalized inverse of G from B-inverse, IUseBI=4.
 Internal  Forces:  Max     0.091529081 RMS     0.052912909
 Search for a local minimum.
 Step number   2 out of a maximum of  100 on scan point     1 out of     6
 All quantities printed in internal units (Hartrees-Bohrs-Radians)
 RMS Force = .32981D-02 SwitMx=.10000D-02 MixMth= 1
 Mixed Optimization -- RFO/linear search
 Update second derivatives using D2CorX and points    1    2
 DE= -1.40D-02 DEPred=-1.28D-02 R= 1.09D+00
 TightC=F SS=  1.41D+00  RLast= 2.62D-01 DXNew= 5.0454D-01 7.8704D-01
 Trust test= 1.09D+00 RLast= 2.62D-01 DXMaxT set to 5.05D-01
 The second derivative matrix:
                          R1        R2        A1
           R1           0.33682
           R2          -0.00020   0.34641
           A1          -0.00004   0.02084   0.16627
 ITU=  1  0
 Use linear search instead of GDIIS.
     Eigenvalues ---    0.16389   0.348791000.00000
 RFO step:  Lambda=-1.20352117D-04 EMin= 1.63889911D-01
 Quartic linear search produced a step of  0.00827.
 Iteration  1 RMS(Cart)=  0.01521439 RMS(Int)=  0.00013770
 Iteration  2 RMS(Cart)=  0.00013117 RMS(Int)=  0.00000000
 Iteration  3 RMS(Cart)=  0.00000000 RMS(Int)=  0.00000000
 Iteration  1 RMS(Cart)=  0.00000000 RMS(Int)=  0.00000000
 ITry= 1 IFail=0 DXMaxC= 1.45D-02 DCOld= 1.00D+10 DXMaxT= 5.05D-01 DXLimC= 3.00D+00 Rises=F
 ClnCor:  largest displacement from symmetrization is 3.14D-16 for atom     2.
 Variable       Old X    -DE/DX   Delta X   Delta X   Delta X     New X
                                 (Linear)    (Quad)   (Total)
    R1        2.07870  -0.09153  -0.00000   0.00000  -0.00000   2.07870
    R2        1.82519  -0.00225  -0.00210  -0.00492  -0.00701   1.81818
    A1        1.74342   0.00408  -0.00056   0.02656   0.02601   1.76943
         Item               Value     Threshold  Converged?
 Maximum Force            0.004084     0.000450     NO 
 RMS     Force            0.003298     0.000300     NO 
 Maximum Displacement     0.014508     0.001800     NO 
 RMS     Displacement     0.015145     0.001200     NO 
 Predicted change in Energy=-6.106366D-05
 Lowest energy point so far.  Saving SCF results.
 GradGradGradGradGradGradGradGradGradGradGradGradGradGradGradGradGradGrad

 Leave Link  103 at Sun Jul  9 12:51:17 2023, MaxMem=  2013265920 cpu:               0.1 elap:               0.0
 (Enter /home/software/GAUSSIAN/g16_new_pgi/l202.exe)
                          Input orientation:                          
 ---------------------------------------------------------------------
 Center     Atomic      Atomic             Coordinates (Angstroms)
 Number     Number       Type             X           Y           Z
 ---------------------------------------------------------------------
      1          8           0       -0.000000   -0.048456    0.117331
      2          1           0        0.000000    0.822946   -0.553981
      3          1           0       -0.000000   -0.774490   -0.514007
 ---------------------------------------------------------------------
                    Distance matrix (angstroms):
                    1          2          3
     1  O    0.000000
     2  H    1.100000   0.000000
     3  H    0.962140   1.597936   0.000000
 Stoichiometry    H2O
 Framework group  CS[SG(H2O)]
 Deg. of freedom     3
 Full point group                 CS      NOp   2
 RotChk:  IX=1 Diff= 5.21D-03
 Largest Abelian subgroup         CS      NOp   2
 Largest concise Abelian subgroup C1      NOp   1
                         Standard orientation:                         
 ---------------------------------------------------------------------
 Center     Atomic      Atomic             Coordinates (Angstroms)
 Number     Number       Type             X           Y           Z
 ---------------------------------------------------------------------
      1          8           0        0.000000   -0.131074   -0.000000
      2          1           0        0.791574    0.632740   -0.000000
      3          1           0       -0.791574    0.415849    0.000000
 ---------------------------------------------------------------------
 Rotational constants (GHZ):         686.8754296         382.9292515         245.8623511
 Leave Link  202 at Sun Jul  9 12:51:17 2023, MaxMem=  2013265920 cpu:               0.3 elap:               0.0
 (Enter /home/software/GAUSSIAN/g16_new_pgi/l301.exe)
 Standard basis: 6-31G(d,p) (6D, 7F)
 Ernie: Thresh=  0.10000D-02 Tol=  0.10000D-05 Strict=F.
 There are    19 symmetry adapted cartesian basis functions of A'  symmetry.
 There are     6 symmetry adapted cartesian basis functions of A"  symmetry.
 There are    19 symmetry adapted basis functions of A'  symmetry.
 There are     6 symmetry adapted basis functions of A"  symmetry.
    25 basis functions,    42 primitive gaussians,    25 cartesian basis functions
     5 alpha electrons        5 beta electrons
       nuclear repulsion energy         8.5797271186 Hartrees.
 IExCor= 4639 DFT=T Ex+Corr=wB97XD ExCW=0 ScaHFX=  1.000000
 ScaDFX=  1.000000  1.000000  1.000000  1.000000 ScalE2=  1.000000  1.000000
 IRadAn=      4 IRanWt=     -1 IRanGd=            0 ICorTp=0 IEmpDi=121
 HFx  wShort=  0.000000 wLong=  0.200000 cFull=  0.222036 cShort=  0.000000 cLong=  0.777964
 DFx  wShort=  0.000000 wLong=  0.200000 cFull=  0.000000 cShort=  0.000000 cLong=  1.000000
 NAtoms=    3 NActive=    3 NUniq=    3 SFac= 1.00D+00 NAtFMM=   60 NAOKFM=F Big=F
 Integral buffers will be    131072 words long.
 Raffenetti 2 integral format.
 Two-electron integral symmetry is turned on.
 R6Disp:  Grimme-D2 Dispersion energy=       -0.0000371594 Hartrees.
 Nuclear repulsion after empirical dispersion term =        8.5796899592 Hartrees.
 Leave Link  301 at Sun Jul  9 12:51:17 2023, MaxMem=  2013265920 cpu:               1.0 elap:               0.1
 (Enter /home/software/GAUSSIAN/g16_new_pgi/l302.exe)
 NPDir=0 NMtPBC=     1 NCelOv=     1 NCel=       1 NClECP=     1 NCelD=      1
         NCelK=      1 NCelE2=     1 NClLst=     1 CellRange=     0.0.
 One-electron integrals computed using PRISM.
 One-electron integral symmetry used in STVInt
 NBasis=    25 RedAO= T EigKep=  2.40D-02  NBF=    19     6
 NBsUse=    25 1.00D-06 EigRej= -1.00D+00 NBFU=    19     6
 Precomputing XC quadrature grid using
 IXCGrd= 4 IRadAn=           4 IRanWt=          -1 IRanGd=           0 AccXCQ= 0.00D+00.
 Generated NRdTot=       0 NPtTot=           0 NUsed=           0 NTot=          32
 NSgBfM=    25    25    25    25    25 MxSgAt=     3 MxSgA2=     3.
 Leave Link  302 at Sun Jul  9 12:51:18 2023, MaxMem=  2013265920 cpu:               2.0 elap:               0.1
 (Enter /home/software/GAUSSIAN/g16_new_pgi/l303.exe)
 DipDrv:  MaxL=1.
 Leave Link  303 at Sun Jul  9 12:51:18 2023, MaxMem=  2013265920 cpu:               0.7 elap:               0.1
 (Enter /home/software/GAUSSIAN/g16_new_pgi/l401.exe)
 Initial guess from the checkpoint file:  "checkpoint.chk"
 B after Tr=    -0.000000    0.000000   -0.000000
         Rot=    0.999999   -0.000000   -0.000000   -0.001458 Ang=  -0.17 deg.
 Guess basis will be translated and rotated to current coordinates.
 JPrj=2 DoOrth=T DoCkMO=T.
 Initial guess orbital symmetries:
       Occupied  (A') (A') (A') (A') (A")
       Virtual   (A') (A') (A') (A') (A') (A") (A') (A') (A') (A")
                 (A") (A') (A') (A') (A") (A") (A') (A') (A') (A')
 The electronic state of the initial guess is 1-A'.
 Leave Link  401 at Sun Jul  9 12:51:18 2023, MaxMem=  2013265920 cpu:               2.0 elap:               0.1
 (Enter /home/software/GAUSSIAN/g16_new_pgi/l502.exe)
 Keep R1 ints in memory in symmetry-blocked form, NReq=17298269.
 FoFCou: FMM=F IPFlag=           0 FMFlag=           0 FMFlg1=           0
         NFxFlg=           0 DoJE=F BraDBF=F KetDBF=F FulRan=T
         wScrn=  0.000000 ICntrl=       600 IOpCl=  0 I1Cent=           0 NGrid=           0
         NMat0=    1 NMatS0=    325 NMatT0=    0 NMatD0=    1 NMtDS0=    0 NMtDT0=    0
 Petite list used in FoFCou.
 Closed shell SCF:
 Using DIIS extrapolation, IDIIS=  1040.
 NGot=  2013265920 LenX=  2013233772 LenY=  2013232706
 Requested convergence on RMS density matrix=1.00D-08 within 128 cycles.
 Requested convergence on MAX density matrix=1.00D-06.
 Requested convergence on             energy=1.00D-06.
 No special actions if energy rises.

 Cycle   1  Pass 1  IDiag  1:
 E= -76.3835578699137    
 DIIS: error= 8.98D-04 at cycle   1 NSaved=   1.
 NSaved= 1 IEnMin= 1 EnMin= -76.3835578699137     IErMin= 1 ErrMin= 8.98D-04
 ErrMax= 8.98D-04  0.00D+00 EMaxC= 1.00D-01 BMatC= 2.23D-05 BMatP= 2.23D-05
 IDIUse=3 WtCom= 9.91D-01 WtEn= 8.98D-03
 Coeff-Com:  0.100D+01
 Coeff-En:   0.100D+01
 Coeff:      0.100D+01
 Gap=     0.506 Goal=   None    Shift=    0.000
 RMSDP=2.54D-04 MaxDP=1.92D-03              OVMax= 2.38D-03

 Cycle   2  Pass 1  IDiag  1:
 E= -76.3835847447429     Delta-E=       -0.000026874829 Rises=F Damp=F
 DIIS: error= 2.14D-04 at cycle   2 NSaved=   2.
 NSaved= 2 IEnMin= 2 EnMin= -76.3835847447429     IErMin= 2 ErrMin= 2.14D-04
 ErrMax= 2.14D-04  0.00D+00 EMaxC= 1.00D-01 BMatC= 2.05D-06 BMatP= 2.23D-05
 IDIUse=3 WtCom= 9.98D-01 WtEn= 2.14D-03
 Coeff-Com:  0.860D-02 0.991D+00
 Coeff-En:   0.000D+00 0.100D+01
 Coeff:      0.858D-02 0.991D+00
 Gap=     0.505 Goal=   None    Shift=    0.000
 RMSDP=6.31D-05 MaxDP=5.97D-04 DE=-2.69D-05 OVMax= 6.17D-04

 Cycle   3  Pass 1  IDiag  1:
 E= -76.3835855311282     Delta-E=       -0.000000786385 Rises=F Damp=F
 DIIS: error= 1.95D-04 at cycle   3 NSaved=   3.
 NSaved= 3 IEnMin= 3 EnMin= -76.3835855311282     IErMin= 3 ErrMin= 1.95D-04
 ErrMax= 1.95D-04  0.00D+00 EMaxC= 1.00D-01 BMatC= 1.61D-06 BMatP= 2.05D-06
 IDIUse=3 WtCom= 9.98D-01 WtEn= 1.95D-03
 Coeff-Com: -0.740D-01 0.507D+00 0.567D+00
 Coeff-En:   0.000D+00 0.304D+00 0.696D+00
 Coeff:     -0.739D-01 0.507D+00 0.567D+00
 Gap=     0.506 Goal=   None    Shift=    0.000
 RMSDP=3.43D-05 MaxDP=3.12D-04 DE=-7.86D-07 OVMax= 3.79D-04

 Cycle   4  Pass 1  IDiag  1:
 E= -76.3835867152229     Delta-E=       -0.000001184095 Rises=F Damp=F
 DIIS: error= 1.45D-05 at cycle   4 NSaved=   4.
 NSaved= 4 IEnMin= 4 EnMin= -76.3835867152229     IErMin= 4 ErrMin= 1.45D-05
 ErrMax= 1.45D-05  0.00D+00 EMaxC= 1.00D-01 BMatC= 8.79D-09 BMatP= 1.61D-06
 IDIUse=1 WtCom= 1.00D+00 WtEn= 0.00D+00
 Coeff-Com:  0.349D-02-0.660D-01-0.115D-01 0.107D+01
 Coeff:      0.349D-02-0.660D-01-0.115D-01 0.107D+01
 Gap=     0.506 Goal=   None    Shift=    0.000
 RMSDP=6.49D-06 MaxDP=4.48D-05 DE=-1.18D-06 OVMax= 7.96D-05

 Cycle   5  Pass 1  IDiag  1:
 E= -76.3835867301984     Delta-E=       -0.000000014975 Rises=F Damp=F
 DIIS: error= 3.57D-06 at cycle   5 NSaved=   5.
 NSaved= 5 IEnMin= 5 EnMin= -76.3835867301984     IErMin= 5 ErrMin= 3.57D-06
 ErrMax= 3.57D-06  0.00D+00 EMaxC= 1.00D-01 BMatC= 4.18D-10 BMatP= 8.79D-09
 IDIUse=1 WtCom= 1.00D+00 WtEn= 0.00D+00
 Coeff-Com:  0.442D-02-0.332D-01-0.241D-01 0.955D-01 0.957D+00
 Coeff:      0.442D-02-0.332D-01-0.241D-01 0.955D-01 0.957D+00
 Gap=     0.506 Goal=   None    Shift=    0.000
 RMSDP=1.85D-06 MaxDP=1.35D-05 DE=-1.50D-08 OVMax= 2.19D-05

 Cycle   6  Pass 1  IDiag  1:
 E= -76.3835867311048     Delta-E=       -0.000000000906 Rises=F Damp=F
 DIIS: error= 7.99D-07 at cycle   6 NSaved=   6.
 NSaved= 6 IEnMin= 6 EnMin= -76.3835867311048     IErMin= 6 ErrMin= 7.99D-07
 ErrMax= 7.99D-07  0.00D+00 EMaxC= 1.00D-01 BMatC= 1.64D-11 BMatP= 4.18D-10
 IDIUse=1 WtCom= 1.00D+00 WtEn= 0.00D+00
 Coeff-Com: -0.748D-03 0.737D-02 0.496D-02-0.688D-01-0.152D+00 0.121D+01
 Coeff:     -0.748D-03 0.737D-02 0.496D-02-0.688D-01-0.152D+00 0.121D+01
 Gap=     0.506 Goal=   None    Shift=    0.000
 RMSDP=5.83D-07 MaxDP=4.73D-06 DE=-9.06D-10 OVMax= 6.51D-06

 Cycle   7  Pass 1  IDiag  1:
 E= -76.3835867311566     Delta-E=       -0.000000000052 Rises=F Damp=F
 DIIS: error= 7.28D-08 at cycle   7 NSaved=   7.
 NSaved= 7 IEnMin= 7 EnMin= -76.3835867311566     IErMin= 7 ErrMin= 7.28D-08
 ErrMax= 7.28D-08  0.00D+00 EMaxC= 1.00D-01 BMatC= 1.60D-13 BMatP= 1.64D-11
 IDIUse=1 WtCom= 1.00D+00 WtEn= 0.00D+00
 Coeff-Com: -0.206D-04 0.904D-04-0.375D-04 0.216D-02-0.656D-02-0.424D-01
 Coeff-Com:  0.105D+01
 Coeff:     -0.206D-04 0.904D-04-0.375D-04 0.216D-02-0.656D-02-0.424D-01
 Coeff:      0.105D+01
 Gap=     0.506 Goal=   None    Shift=    0.000
 RMSDP=3.44D-08 MaxDP=2.92D-07 DE=-5.18D-11 OVMax= 3.68D-07

 Cycle   8  Pass 1  IDiag  1:
 E= -76.3835867311569     Delta-E=       -0.000000000000 Rises=F Damp=F
 DIIS: error= 1.30D-08 at cycle   8 NSaved=   8.
 NSaved= 8 IEnMin= 8 EnMin= -76.3835867311569     IErMin= 8 ErrMin= 1.30D-08
 ErrMax= 1.30D-08  0.00D+00 EMaxC= 1.00D-01 BMatC= 6.33D-15 BMatP= 1.60D-13
 IDIUse=1 WtCom= 1.00D+00 WtEn= 0.00D+00
 Coeff-Com:  0.276D-04-0.269D-03-0.189D-03 0.270D-02 0.434D-02-0.428D-01
 Coeff-Com: -0.198D-01 0.106D+01
 Coeff:      0.276D-04-0.269D-03-0.189D-03 0.270D-02 0.434D-02-0.428D-01
 Coeff:     -0.198D-01 0.106D+01
 Gap=     0.506 Goal=   None    Shift=    0.000
 RMSDP=7.70D-09 MaxDP=5.05D-08 DE=-2.98D-13 OVMax= 8.26D-08

 SCF Done:  E(RwB97XD) =  -76.3835867312     A.U. after    8 cycles
            NFock=  8  Conv=0.77D-08     -V/T= 2.0100
 KE= 7.562627796727D+01 PE=-1.976586183174D+02 EE= 3.706906365976D+01
 Leave Link  502 at Sun Jul  9 12:51:18 2023, MaxMem=  2013265920 cpu:               5.1 elap:               0.3
 (Enter /home/software/GAUSSIAN/g16_new_pgi/l701.exe)
 ... and contract with generalized density number  0.
 Compute integral first derivatives.
 R6Disp: Adding Grimme-D2 dispersion energy 1st derivatives to the gradient.
 Leave Link  701 at Sun Jul  9 12:51:18 2023, MaxMem=  2013265920 cpu:               2.1 elap:               0.1
 (Enter /home/software/GAUSSIAN/g16_new_pgi/l702.exe)
 L702 exits ... SP integral derivatives will be done elsewhere.
 Leave Link  702 at Sun Jul  9 12:51:18 2023, MaxMem=  2013265920 cpu:               0.4 elap:               0.0
 (Enter /home/software/GAUSSIAN/g16_new_pgi/l703.exe)
 Integral derivatives from FoFJK, PRISM(SPDF).
 Compute integral first derivatives, UseDBF=F ICtDFT=           0.
 Calling FoFJK, ICntrl=      2127 FMM=F ISym2X=1 I1Cent= 0 IOpClX= 0 NMat=1 NMatS=1 NMatT=0.
 FoFJK:  IHMeth= 1 ICntrl=    2127 DoSepK=T KAlg= 0 I1Cent=           0 FoldK=F
 IRaf=         1 NMat=       1 IRICut=       1 DoRegI=T DoRafI=F ISym2E= 1 IDoP0=0 IntGTp=1.
 FoFCou: FMM=F IPFlag=           0 FMFlag=      100000 FMFlg1=         800
         NFxFlg=           0 DoJE=F BraDBF=F KetDBF=F FulRan=T
         wScrn=  0.000000 ICntrl=      2527 IOpCl=  0 I1Cent=           0 NGrid=           0
         NMat0=    1 NMatS0=      1 NMatT0=    0 NMatD0=    1 NMtDS0=    0 NMtDT0=    0
 Petite list used in FoFCou.
 Leave Link  703 at Sun Jul  9 12:51:19 2023, MaxMem=  2013265920 cpu:               6.4 elap:               0.3
 (Enter /home/software/GAUSSIAN/g16_new_pgi/l716.exe)
 Dipole        =-5.10139047D-02 8.50126070D-01 3.53320847D-32
 ***** Axes restored to original set *****
 -------------------------------------------------------------------
 Center     Atomic                   Forces (Hartrees/Bohr)
 Number     Number              X              Y              Z
 -------------------------------------------------------------------
      1        8           0.000000000    0.073896855   -0.055680623
      2        1          -0.000000000   -0.073183103    0.056322799
      3        1          -0.000000000   -0.000713753   -0.000642176
 -------------------------------------------------------------------
 Cartesian Forces:  Max     0.073896855 RMS     0.043576272
 Leave Link  716 at Sun Jul  9 12:51:19 2023, MaxMem=  2013265920 cpu:               0.9 elap:               0.1
 (Enter /home/software/GAUSSIAN/g16_new_pgi/l103.exe)

 GradGradGradGradGradGradGradGradGradGradGradGradGradGradGradGradGradGrad
 Berny optimization.
 Using GEDIIS/GDIIS optimizer.
 FormGI is forming the generalized inverse of G from B-inverse, IUseBI=4.
 Internal  Forces:  Max     0.092353992 RMS     0.053323539
 Search for a local minimum.
 Step number   3 out of a maximum of  100 on scan point     1 out of     6
 All quantities printed in internal units (Hartrees-Bohrs-Radians)
 RMS Force = .68542D-03 SwitMx=.10000D-02 MixMth= 2
 Mixed Optimization -- En-DIIS/RFO-DIIS
 Update second derivatives using D2CorX and points    1    2    3
 DE= -5.70D-05 DEPred=-6.11D-05 R= 9.33D-01
 TightC=F SS=  1.41D+00  RLast= 2.69D-02 DXNew= 8.4853D-01 8.0806D-02
 Trust test= 9.33D-01 RLast= 2.69D-02 DXMaxT set to 5.05D-01
 The second derivative matrix:
                          R1        R2        A1
           R1           0.34207
           R2          -0.02351   0.40095
           A1           0.02538  -0.01572   0.15499
 ITU=  1  1  0
 Use linear search instead of GDIIS.
     Eigenvalues ---    0.15399   0.401951000.00000
 RFO step:  Lambda=-1.81488275D-06 EMin= 1.53990928D-01
 Quartic linear search produced a step of -0.06322.
 Iteration  1 RMS(Cart)=  0.00103830 RMS(Int)=  0.00000019
 Iteration  2 RMS(Cart)=  0.00000017 RMS(Int)=  0.00000000
 Iteration  1 RMS(Cart)=  0.00000000 RMS(Int)=  0.00000000
 ITry= 1 IFail=0 DXMaxC= 1.25D-03 DCOld= 1.00D+10 DXMaxT= 5.05D-01 DXLimC= 3.00D+00 Rises=F
 ClnCor:  largest displacement from symmetrization is 1.11D-15 for atom     2.
 Variable       Old X    -DE/DX   Delta X   Delta X   Delta X     New X
                                 (Linear)    (Quad)   (Total)
    R1        2.07870  -0.09235   0.00000   0.00000   0.00000   2.07870
    R2        1.81818   0.00097   0.00044   0.00196   0.00241   1.82059
    A1        1.76943  -0.00006  -0.00164   0.00153  -0.00012   1.76931
         Item               Value     Threshold  Converged?
 Maximum Force            0.000968     0.000450     NO 
 RMS     Force            0.000685     0.000300     NO 
 Maximum Displacement     0.001247     0.001800     YES
 RMS     Displacement     0.001038     0.001200     YES
 Predicted change in Energy=-1.168845D-06
 Lowest energy point so far.  Saving SCF results.
 GradGradGradGradGradGradGradGradGradGradGradGradGradGradGradGradGradGrad

 Leave Link  103 at Sun Jul  9 12:51:19 2023, MaxMem=  2013265920 cpu:               0.1 elap:               0.0
 (Enter /home/software/GAUSSIAN/g16_new_pgi/l202.exe)
                          Input orientation:                          
 ---------------------------------------------------------------------
 Center     Atomic      Atomic             Coordinates (Angstroms)
 Number     Number       Type             X           Y           Z
 ---------------------------------------------------------------------
      1          8           0        0.000000   -0.048010    0.117654
      2          1           0        0.000000    0.823160   -0.553958
      3          1           0       -0.000000   -0.775150   -0.514354
 ---------------------------------------------------------------------
                    Distance matrix (angstroms):
                    1          2          3
     1  O    0.000000
     2  H    1.100000   0.000000
     3  H    0.963414   1.598801   0.000000
 Stoichiometry    H2O
 Framework group  CS[SG(H2O)]
 Deg. of freedom     3
 Full point group                 CS      NOp   2
 RotChk:  IX=1 Diff= 1.55D-03
 Largest Abelian subgroup         CS      NOp   2
 Largest concise Abelian subgroup C1      NOp   1
                         Standard orientation:                         
 ---------------------------------------------------------------------
 Center     Atomic      Atomic             Coordinates (Angstroms)
 Number     Number       Type             X           Y           Z
 ---------------------------------------------------------------------
      1          8           0       -0.000000   -0.131155   -0.000000
      2          1           0        0.792147    0.632064   -0.000000
      3          1           0       -0.792147    0.417178    0.000000
 ---------------------------------------------------------------------
 Rotational constants (GHZ):         685.4597491         382.6878776         245.5813504
 Leave Link  202 at Sun Jul  9 12:51:19 2023, MaxMem=  2013265920 cpu:               0.2 elap:               0.0
 (Enter /home/software/GAUSSIAN/g16_new_pgi/l301.exe)
 Standard basis: 6-31G(d,p) (6D, 7F)
 Ernie: Thresh=  0.10000D-02 Tol=  0.10000D-05 Strict=F.
 There are    19 symmetry adapted cartesian basis functions of A'  symmetry.
 There are     6 symmetry adapted cartesian basis functions of A"  symmetry.
 There are    19 symmetry adapted basis functions of A'  symmetry.
 There are     6 symmetry adapted basis functions of A"  symmetry.
    25 basis functions,    42 primitive gaussians,    25 cartesian basis functions
     5 alpha electrons        5 beta electrons
       nuclear repulsion energy         8.5737284418 Hartrees.
 IExCor= 4639 DFT=T Ex+Corr=wB97XD ExCW=0 ScaHFX=  1.000000
 ScaDFX=  1.000000  1.000000  1.000000  1.000000 ScalE2=  1.000000  1.000000
 IRadAn=      4 IRanWt=     -1 IRanGd=            0 ICorTp=0 IEmpDi=121
 HFx  wShort=  0.000000 wLong=  0.200000 cFull=  0.222036 cShort=  0.000000 cLong=  0.777964
 DFx  wShort=  0.000000 wLong=  0.200000 cFull=  0.000000 cShort=  0.000000 cLong=  1.000000
 NAtoms=    3 NActive=    3 NUniq=    3 SFac= 1.00D+00 NAtFMM=   60 NAOKFM=F Big=F
 Integral buffers will be    131072 words long.
 Raffenetti 2 integral format.
 Two-electron integral symmetry is turned on.
 R6Disp:  Grimme-D2 Dispersion energy=       -0.0000372762 Hartrees.
 Nuclear repulsion after empirical dispersion term =        8.5736911656 Hartrees.
 Leave Link  301 at Sun Jul  9 12:51:19 2023, MaxMem=  2013265920 cpu:               1.0 elap:               0.1
 (Enter /home/software/GAUSSIAN/g16_new_pgi/l302.exe)
 NPDir=0 NMtPBC=     1 NCelOv=     1 NCel=       1 NClECP=     1 NCelD=      1
         NCelK=      1 NCelE2=     1 NClLst=     1 CellRange=     0.0.
 One-electron integrals computed using PRISM.
 One-electron integral symmetry used in STVInt
 NBasis=    25 RedAO= T EigKep=  2.40D-02  NBF=    19     6
 NBsUse=    25 1.00D-06 EigRej= -1.00D+00 NBFU=    19     6
 Precomputing XC quadrature grid using
 IXCGrd= 4 IRadAn=           4 IRanWt=          -1 IRanGd=           0 AccXCQ= 0.00D+00.
 Generated NRdTot=       0 NPtTot=           0 NUsed=           0 NTot=          32
 NSgBfM=    25    25    25    25    25 MxSgAt=     3 MxSgA2=     3.
 Leave Link  302 at Sun Jul  9 12:51:19 2023, MaxMem=  2013265920 cpu:               2.4 elap:               0.1
 (Enter /home/software/GAUSSIAN/g16_new_pgi/l303.exe)
 DipDrv:  MaxL=1.
 Leave Link  303 at Sun Jul  9 12:51:19 2023, MaxMem=  2013265920 cpu:               0.6 elap:               0.1
 (Enter /home/software/GAUSSIAN/g16_new_pgi/l401.exe)
 Initial guess from the checkpoint file:  "checkpoint.chk"
 B after Tr=     0.000000    0.000000   -0.000000
         Rot=    1.000000   -0.000000    0.000000    0.000436 Ang=   0.05 deg.
 Guess basis will be translated and rotated to current coordinates.
 JPrj=2 DoOrth=T DoCkMO=T.
 Initial guess orbital symmetries:
       Occupied  (A') (A') (A') (A') (A")
       Virtual   (A') (A') (A') (A') (A') (A") (A') (A') (A') (A")
                 (A") (A') (A') (A') (A") (A") (A') (A') (A') (A')
 The electronic state of the initial guess is 1-A'.
 Leave Link  401 at Sun Jul  9 12:51:19 2023, MaxMem=  2013265920 cpu:               1.9 elap:               0.1
 (Enter /home/software/GAUSSIAN/g16_new_pgi/l502.exe)
 Keep R1 ints in memory in symmetry-blocked form, NReq=17298269.
 FoFCou: FMM=F IPFlag=           0 FMFlag=           0 FMFlg1=           0
         NFxFlg=           0 DoJE=F BraDBF=F KetDBF=F FulRan=T
         wScrn=  0.000000 ICntrl=       600 IOpCl=  0 I1Cent=           0 NGrid=           0
         NMat0=    1 NMatS0=    325 NMatT0=    0 NMatD0=    1 NMtDS0=    0 NMtDT0=    0
 Petite list used in FoFCou.
 Closed shell SCF:
 Using DIIS extrapolation, IDIIS=  1040.
 NGot=  2013265920 LenX=  2013233772 LenY=  2013232706
 Requested convergence on RMS density matrix=1.00D-08 within 128 cycles.
 Requested convergence on MAX density matrix=1.00D-06.
 Requested convergence on             energy=1.00D-06.
 No special actions if energy rises.

 Cycle   1  Pass 1  IDiag  1:
 E= -76.3835869395774    
 DIIS: error= 1.03D-04 at cycle   1 NSaved=   1.
 NSaved= 1 IEnMin= 1 EnMin= -76.3835869395774     IErMin= 1 ErrMin= 1.03D-04
 ErrMax= 1.03D-04  0.00D+00 EMaxC= 1.00D-01 BMatC= 3.96D-07 BMatP= 3.96D-07
 IDIUse=3 WtCom= 9.99D-01 WtEn= 1.03D-03
 Coeff-Com:  0.100D+01
 Coeff-En:   0.100D+01
 Coeff:      0.100D+01
 Gap=     0.506 Goal=   None    Shift=    0.000
 RMSDP=2.66D-05 MaxDP=1.95D-04              OVMax= 2.67D-04

 Cycle   2  Pass 1  IDiag  1:
 E= -76.3835873411668     Delta-E=       -0.000000401589 Rises=F Damp=F
 DIIS: error= 4.24D-05 at cycle   2 NSaved=   2.
 NSaved= 2 IEnMin= 2 EnMin= -76.3835873411668     IErMin= 2 ErrMin= 4.24D-05
 ErrMax= 4.24D-05  0.00D+00 EMaxC= 1.00D-01 BMatC= 7.11D-08 BMatP= 3.96D-07
 IDIUse=1 WtCom= 1.00D+00 WtEn= 0.00D+00
 Coeff-Com:  0.175D+00 0.825D+00
 Coeff:      0.175D+00 0.825D+00
 Gap=     0.506 Goal=   None    Shift=    0.000
 RMSDP=9.78D-06 MaxDP=9.98D-05 DE=-4.02D-07 OVMax= 1.03D-04

 Cycle   3  Pass 1  IDiag  1:
 E= -76.3835873760861     Delta-E=       -0.000000034919 Rises=F Damp=F
 DIIS: error= 2.60D-05 at cycle   3 NSaved=   3.
 NSaved= 3 IEnMin= 3 EnMin= -76.3835873760861     IErMin= 3 ErrMin= 2.60D-05
 ErrMax= 2.60D-05  0.00D+00 EMaxC= 1.00D-01 BMatC= 3.10D-08 BMatP= 7.11D-08
 IDIUse=1 WtCom= 1.00D+00 WtEn= 0.00D+00
 Coeff-Com: -0.514D-01 0.393D+00 0.658D+00
 Coeff:     -0.514D-01 0.393D+00 0.658D+00
 Gap=     0.506 Goal=   None    Shift=    0.000
 RMSDP=5.20D-06 MaxDP=4.61D-05 DE=-3.49D-08 OVMax= 5.66D-05

 Cycle   4  Pass 1  IDiag  1:
 E= -76.3835873998729     Delta-E=       -0.000000023787 Rises=F Damp=F
 DIIS: error= 3.77D-06 at cycle   4 NSaved=   4.
 NSaved= 4 IEnMin= 4 EnMin= -76.3835873998729     IErMin= 4 ErrMin= 3.77D-06
 ErrMax= 3.77D-06  0.00D+00 EMaxC= 1.00D-01 BMatC= 3.70D-10 BMatP= 3.10D-08
 IDIUse=1 WtCom= 1.00D+00 WtEn= 0.00D+00
 Coeff-Com: -0.147D-01 0.110D-02 0.856D-01 0.928D+00
 Coeff:     -0.147D-01 0.110D-02 0.856D-01 0.928D+00
 Gap=     0.506 Goal=   None    Shift=    0.000
 RMSDP=9.83D-07 MaxDP=6.45D-06 DE=-2.38D-08 OVMax= 9.69D-06

 Cycle   5  Pass 1  IDiag  1:
 E= -76.3835874003735     Delta-E=       -0.000000000501 Rises=F Damp=F
 DIIS: error= 5.78D-07 at cycle   5 NSaved=   5.
 NSaved= 5 IEnMin= 5 EnMin= -76.3835874003735     IErMin= 5 ErrMin= 5.78D-07
 ErrMax= 5.78D-07  0.00D+00 EMaxC= 1.00D-01 BMatC= 1.12D-11 BMatP= 3.70D-10
 IDIUse=1 WtCom= 1.00D+00 WtEn= 0.00D+00
 Coeff-Com:  0.399D-02-0.242D-01-0.384D-01-0.675D-01 0.113D+01
 Coeff:      0.399D-02-0.242D-01-0.384D-01-0.675D-01 0.113D+01
 Gap=     0.506 Goal=   None    Shift=    0.000
 RMSDP=4.41D-07 MaxDP=3.33D-06 DE=-5.01D-10 OVMax= 4.33D-06

 Cycle   6  Pass 1  IDiag  1:
 E= -76.3835874004071     Delta-E=       -0.000000000034 Rises=F Damp=F
 DIIS: error= 9.72D-08 at cycle   6 NSaved=   6.
 NSaved= 6 IEnMin= 6 EnMin= -76.3835874004071     IErMin= 6 ErrMin= 9.72D-08
 ErrMax= 9.72D-08  0.00D+00 EMaxC= 1.00D-01 BMatC= 2.26D-13 BMatP= 1.12D-11
 IDIUse=1 WtCom= 1.00D+00 WtEn= 0.00D+00
 Coeff-Com:  0.879D-04 0.821D-03 0.504D-03-0.172D-01-0.515D-01 0.107D+01
 Coeff:      0.879D-04 0.821D-03 0.504D-03-0.172D-01-0.515D-01 0.107D+01
 Gap=     0.506 Goal=   None    Shift=    0.000
 RMSDP=5.92D-08 MaxDP=5.28D-07 DE=-3.37D-11 OVMax= 6.28D-07

 Cycle   7  Pass 1  IDiag  1:
 E= -76.3835874004079     Delta-E=       -0.000000000001 Rises=F Damp=F
 DIIS: error= 2.46D-08 at cycle   7 NSaved=   7.
 NSaved= 7 IEnMin= 7 EnMin= -76.3835874004079     IErMin= 7 ErrMin= 2.46D-08
 ErrMax= 2.46D-08  0.00D+00 EMaxC= 1.00D-01 BMatC= 1.27D-14 BMatP= 2.26D-13
 IDIUse=1 WtCom= 1.00D+00 WtEn= 0.00D+00
 Coeff-Com: -0.169D-03 0.106D-02 0.180D-02 0.251D-02-0.528D-01 0.501D-01
 Coeff-Com:  0.997D+00
 Coeff:     -0.169D-03 0.106D-02 0.180D-02 0.251D-02-0.528D-01 0.501D-01
 Coeff:      0.997D+00
 Gap=     0.506 Goal=   None    Shift=    0.000
 RMSDP=1.08D-08 MaxDP=8.81D-08 DE=-7.82D-13 OVMax= 1.21D-07

 Cycle   8  Pass 1  IDiag  1:
 E= -76.3835874004079     Delta-E=        0.000000000000 Rises=F Damp=F
 DIIS: error= 3.53D-09 at cycle   8 NSaved=   8.
 NSaved= 8 IEnMin= 7 EnMin= -76.3835874004079     IErMin= 8 ErrMin= 3.53D-09
 ErrMax= 3.53D-09  0.00D+00 EMaxC= 1.00D-01 BMatC= 4.04D-16 BMatP= 1.27D-14
 IDIUse=1 WtCom= 1.00D+00 WtEn= 0.00D+00
 Coeff-Com:  0.153D-04-0.180D-03-0.238D-03 0.768D-03 0.773D-02-0.507D-01
 Coeff-Com: -0.144D+00 0.119D+01
 Coeff:      0.153D-04-0.180D-03-0.238D-03 0.768D-03 0.773D-02-0.507D-01
 Coeff:     -0.144D+00 0.119D+01
 Gap=     0.506 Goal=   None    Shift=    0.000
 RMSDP=2.77D-09 MaxDP=1.98D-08 DE= 5.68D-14 OVMax= 3.16D-08

 SCF Done:  E(RwB97XD) =  -76.3835874004     A.U. after    8 cycles
            NFock=  8  Conv=0.28D-08     -V/T= 2.0100
 KE= 7.562399901055D+01 PE=-1.976456221583D+02 EE= 3.706434458176D+01
 Leave Link  502 at Sun Jul  9 12:51:19 2023, MaxMem=  2013265920 cpu:               5.3 elap:               0.3
 (Enter /home/software/GAUSSIAN/g16_new_pgi/l701.exe)
 ... and contract with generalized density number  0.
 Compute integral first derivatives.
 R6Disp: Adding Grimme-D2 dispersion energy 1st derivatives to the gradient.
 Leave Link  701 at Sun Jul  9 12:51:20 2023, MaxMem=  2013265920 cpu:               2.3 elap:               0.1
 (Enter /home/software/GAUSSIAN/g16_new_pgi/l702.exe)
 L702 exits ... SP integral derivatives will be done elsewhere.
 Leave Link  702 at Sun Jul  9 12:51:20 2023, MaxMem=  2013265920 cpu:               1.0 elap:               0.1
 (Enter /home/software/GAUSSIAN/g16_new_pgi/l703.exe)
 Integral derivatives from FoFJK, PRISM(SPDF).
 Compute integral first derivatives, UseDBF=F ICtDFT=           0.
 Calling FoFJK, ICntrl=      2127 FMM=F ISym2X=1 I1Cent= 0 IOpClX= 0 NMat=1 NMatS=1 NMatT=0.
 FoFJK:  IHMeth= 1 ICntrl=    2127 DoSepK=T KAlg= 0 I1Cent=           0 FoldK=F
 IRaf=         1 NMat=       1 IRICut=       1 DoRegI=T DoRafI=F ISym2E= 1 IDoP0=0 IntGTp=1.
 FoFCou: FMM=F IPFlag=           0 FMFlag=      100000 FMFlg1=         800
         NFxFlg=           0 DoJE=F BraDBF=F KetDBF=F FulRan=T
         wScrn=  0.000000 ICntrl=      2527 IOpCl=  0 I1Cent=           0 NGrid=           0
         NMat0=    1 NMatS0=      1 NMatT0=    0 NMatD0=    1 NMtDS0=    0 NMtDT0=    0
 Petite list used in FoFCou.
 Leave Link  703 at Sun Jul  9 12:51:20 2023, MaxMem=  2013265920 cpu:               6.3 elap:               0.3
 (Enter /home/software/GAUSSIAN/g16_new_pgi/l716.exe)
 Dipole        =-5.05786252D-02 8.50252656D-01 6.19027792D-32
 ***** Axes restored to original set *****
 -------------------------------------------------------------------
 Center     Atomic                   Forces (Hartrees/Bohr)
 Number     Number              X              Y              Z
 -------------------------------------------------------------------
      1        8           0.000000000    0.072858440   -0.056534153
      2        1          -0.000000000   -0.073159847    0.056321256
      3        1           0.000000000    0.000301408    0.000212897
 -------------------------------------------------------------------
 Cartesian Forces:  Max     0.073159847 RMS     0.043498462
 Leave Link  716 at Sun Jul  9 12:51:20 2023, MaxMem=  2013265920 cpu:               0.5 elap:               0.0
 (Enter /home/software/GAUSSIAN/g16_new_pgi/l103.exe)

 GradGradGradGradGradGradGradGradGradGradGradGradGradGradGradGradGradGrad
 Berny optimization.
 Using GEDIIS/GDIIS optimizer.
 FormGI is forming the generalized inverse of G from B-inverse, IUseBI=4.
 Internal  Forces:  Max     0.092334734 RMS     0.053309916
 Search for a local minimum.
 Step number   4 out of a maximum of  100 on scan point     1 out of     6
 All quantities printed in internal units (Hartrees-Bohrs-Radians)
 RMS Force = .26295D-03 SwitMx=.10000D-02 MixMth= 2
 Mixed Optimization -- En-DIIS/RFO-DIIS
 Swapping is turned off.
 Update second derivatives using D2CorX and points    1    2    3    4
 DE= -6.69D-07 DEPred=-1.17D-06 R= 5.73D-01
 TightC=F SS=  1.41D+00  RLast= 2.41D-03 DXNew= 8.4853D-01 7.2322D-03
 Trust test= 5.73D-01 RLast= 2.41D-03 DXMaxT set to 5.05D-01
 The second derivative matrix:
                          R1        R2        A1
           R1           0.34186
           R2          -0.00666   0.55224
           A1           0.02779   0.02368   0.15999
 ITU=  1  1  1  0
     Eigenvalues ---    0.15857   0.553661000.00000
 En-DIIS/RFO-DIIS/Sim-DIIS IScMMF=       -3 using points:     4    3
 RFO step:  Lambda=-8.80002902D-06.
 NNeg= 0 NGDIIS= 2 SimSw=  2.50D-01 Rises=F DC= -6.69D-07 SmlDif=  1.00D-05
 NRisDI= 0 DoIntr=F SqrtH=F CThrHd= 10.0 CDAdj=  3.0
 RMS Error=  0.4686374803D-03 NUsed= 2 OKEnD=F EnDIS=F
 InvSVX:  RCond= 6.54D-06 Info=           0 Equed=N FErr=  1.29D-15 BErr=  5.55D-17
 DidBck=T Rises=F RFO-DIIS coefs:    0.74943    0.25057
 Iteration  1 RMS(Cart)=  0.00048582 RMS(Int)=  0.00000010
 Iteration  2 RMS(Cart)=  0.00000007 RMS(Int)=  0.00000000
 Iteration  1 RMS(Cart)=  0.00000000 RMS(Int)=  0.00000000
 ITry= 1 IFail=0 DXMaxC= 6.64D-04 DCOld= 1.00D+10 DXMaxT= 5.05D-01 DXLimC= 3.00D+00 Rises=F
[...]
 ErrMax= 2.11D-03  0.00D+00 EMaxC= 1.00D-01 BMatC= 5.58D-05 BMatP= 3.99D-06
 IDIUse=3 WtCom= 1.79D-01 WtEn= 8.21D-01
 Coeff-Com: -0.175D+00 0.992D+00 0.183D+00
 Coeff-En:   0.000D+00 0.848D+00 0.152D+00
 Coeff:     -0.313D-01 0.874D+00 0.158D+00
 Gap=     0.150 Goal=   None    Shift=    0.000
 RMSDP=2.16D-04 MaxDP=2.62D-03 DE= 4.87D-05 OVMax= 5.68D-03

 Cycle   4  Pass 0  IDiag  1:
 E= -76.0809386220958     Delta-E=       -0.000065064376 Rises=F Damp=F
 DIIS: error= 2.22D-04 at cycle   4 NSaved=   4.
 NSaved= 4 IEnMin= 4 EnMin= -76.0809386220958     IErMin= 4 ErrMin= 2.22D-04
 ErrMax= 2.22D-04  0.00D+00 EMaxC= 1.00D-01 BMatC= 4.09D-07 BMatP= 3.99D-06
 IDIUse=3 WtCom= 9.98D-01 WtEn= 2.22D-03
 Coeff-Com:  0.244D-01-0.569D+00-0.133D+00 0.168D+01
 Coeff-En:   0.000D+00 0.000D+00 0.000D+00 0.100D+01
 Coeff:      0.243D-01-0.568D+00-0.133D+00 0.168D+01
 Gap=     0.150 Goal=   None    Shift=    0.000
 RMSDP=9.92D-05 MaxDP=7.39D-04 DE=-6.51D-05 OVMax= 2.48D-03

 Cycle   5  Pass 0  IDiag  1:
 E= -76.0809418925267     Delta-E=       -0.000003270431 Rises=F Damp=F
 DIIS: error= 1.09D-04 at cycle   5 NSaved=   5.
 NSaved= 5 IEnMin= 5 EnMin= -76.0809418925267     IErMin= 5 ErrMin= 1.09D-04
 ErrMax= 1.09D-04  0.00D+00 EMaxC= 1.00D-01 BMatC= 1.40D-07 BMatP= 4.09D-07
 IDIUse=3 WtCom= 9.99D-01 WtEn= 1.09D-03
 Coeff-Com:  0.210D-01-0.141D+00 0.242D-01 0.198D-01 0.108D+01
 Coeff-En:   0.000D+00 0.000D+00 0.000D+00 0.000D+00 0.100D+01
 Coeff:      0.210D-01-0.141D+00 0.242D-01 0.198D-01 0.108D+01
 Gap=     0.150 Goal=   None    Shift=    0.000
 RMSDP=2.91D-05 MaxDP=2.53D-04 DE=-3.27D-06 OVMax= 6.60D-04

 Cycle   6  Pass 0  IDiag  1:
 E= -76.0809422630334     Delta-E=       -0.000000370507 Rises=F Damp=F
 DIIS: error= 3.23D-05 at cycle   6 NSaved=   6.
 NSaved= 6 IEnMin= 6 EnMin= -76.0809422630334     IErMin= 6 ErrMin= 3.23D-05
 ErrMax= 3.23D-05  0.00D+00 EMaxC= 1.00D-01 BMatC= 1.21D-08 BMatP= 1.40D-07
 IDIUse=1 WtCom= 1.00D+00 WtEn= 0.00D+00
 Coeff-Com: -0.691D-02 0.814D-01-0.413D-02-0.167D+00-0.119D+00 0.122D+01
 Coeff:     -0.691D-02 0.814D-01-0.413D-02-0.167D+00-0.119D+00 0.122D+01
 Gap=     0.150 Goal=   None    Shift=    0.000
 RMSDP=8.31D-06 MaxDP=5.63D-05 DE=-3.71D-07 OVMax= 1.68D-04

 Initial convergence to 1.0D-05 achieved.  Increase integral accuracy.
 Cycle   7  Pass 1  IDiag  1:
 E= -76.0809224200168     Delta-E=        0.000019843017 Rises=F Damp=F
 DIIS: error= 6.23D-05 at cycle   1 NSaved=   1.
 NSaved= 1 IEnMin= 1 EnMin= -76.0809224200168     IErMin= 1 ErrMin= 6.23D-05
 ErrMax= 6.23D-05  0.00D+00 EMaxC= 1.00D-01 BMatC= 1.29D-07 BMatP= 1.29D-07
 IDIUse=1 WtCom= 1.00D+00 WtEn= 0.00D+00
 Coeff-Com:  0.100D+01
 Coeff:      0.100D+01
 Gap=     0.150 Goal=   None    Shift=    0.000
 RMSDP=8.31D-06 MaxDP=5.63D-05 DE= 1.98D-05 OVMax= 1.53D-04

 Cycle   8  Pass 1  IDiag  1:
 E= -76.0809225117632     Delta-E=       -0.000000091746 Rises=F Damp=F
 DIIS: error= 3.12D-05 at cycle   2 NSaved=   2.
 NSaved= 2 IEnMin= 2 EnMin= -76.0809225117632     IErMin= 2 ErrMin= 3.12D-05
 ErrMax= 3.12D-05  0.00D+00 EMaxC= 1.00D-01 BMatC= 1.01D-08 BMatP= 1.29D-07
 IDIUse=1 WtCom= 1.00D+00 WtEn= 0.00D+00
 Coeff-Com: -0.962D-02 0.101D+01
 Coeff:     -0.962D-02 0.101D+01
 Gap=     0.150 Goal=   None    Shift=    0.000
 RMSDP=1.79D-05 MaxDP=2.11D-04 DE=-9.17D-08 OVMax= 4.75D-04

 Cycle   9  Pass 1  IDiag  1:
 E= -76.0809222473115     Delta-E=        0.000000264452 Rises=F Damp=F
 DIIS: error= 1.38D-04 at cycle   3 NSaved=   3.
 NSaved= 3 IEnMin= 2 EnMin= -76.0809225117632     IErMin= 2 ErrMin= 3.12D-05
 ErrMax= 1.38D-04  0.00D+00 EMaxC= 1.00D-01 BMatC= 2.35D-07 BMatP= 1.01D-08
 IDIUse=3 WtCom= 4.60D-01 WtEn= 5.40D-01
 Coeff-Com: -0.626D-01 0.894D+00 0.169D+00
 Coeff-En:   0.000D+00 0.891D+00 0.109D+00
 Coeff:     -0.288D-01 0.892D+00 0.137D+00
 Gap=     0.150 Goal=   None    Shift=    0.000
 RMSDP=1.09D-05 MaxDP=1.33D-04 DE= 2.64D-07 OVMax= 2.86D-04

 Cycle  10  Pass 1  IDiag  1:
 E= -76.0809225098844     Delta-E=       -0.000000262573 Rises=F Damp=F
 DIIS: error= 3.50D-05 at cycle   4 NSaved=   4.
 NSaved= 4 IEnMin= 2 EnMin= -76.0809225117632     IErMin= 2 ErrMin= 3.12D-05
 ErrMax= 3.50D-05  0.00D+00 EMaxC= 1.00D-01 BMatC= 1.37D-08 BMatP= 1.01D-08
 IDIUse=1 WtCom= 1.00D+00 WtEn= 0.00D+00
 Coeff-Com: -0.238D-01 0.211D+00-0.207D+00 0.102D+01
 Coeff:     -0.238D-01 0.211D+00-0.207D+00 0.102D+01
 Gap=     0.150 Goal=   None    Shift=    0.000
 RMSDP=3.80D-06 MaxDP=4.64D-05 DE=-2.63D-07 OVMax= 1.01D-04

 Cycle  11  Pass 1  IDiag  1:
 E= -76.0809225274930     Delta-E=       -0.000000017609 Rises=F Damp=F
 DIIS: error= 1.21D-06 at cycle   5 NSaved=   5.
 NSaved= 5 IEnMin= 5 EnMin= -76.0809225274930     IErMin= 5 ErrMin= 1.21D-06
 ErrMax= 1.21D-06  0.00D+00 EMaxC= 1.00D-01 BMatC= 1.57D-11 BMatP= 1.01D-08
 IDIUse=1 WtCom= 1.00D+00 WtEn= 0.00D+00
 Coeff-Com:  0.110D-01-0.100D+00 0.995D-01-0.460D+00 0.145D+01
 Coeff:      0.110D-01-0.100D+00 0.995D-01-0.460D+00 0.145D+01
 Gap=     0.150 Goal=   None    Shift=    0.000
 RMSDP=4.72D-07 MaxDP=3.34D-06 DE=-1.76D-08 OVMax= 1.15D-05

 Cycle  12  Pass 1  IDiag  1:
 E= -76.0809225275838     Delta-E=       -0.000000000091 Rises=F Damp=F
 DIIS: error= 4.72D-07 at cycle   6 NSaved=   6.
 NSaved= 6 IEnMin= 6 EnMin= -76.0809225275838     IErMin= 6 ErrMin= 4.72D-07
 ErrMax= 4.72D-07  0.00D+00 EMaxC= 1.00D-01 BMatC= 3.15D-12 BMatP= 1.57D-11
 IDIUse=1 WtCom= 1.00D+00 WtEn= 0.00D+00
 Coeff-Com: -0.114D-02 0.171D-01-0.131D-01 0.402D-01-0.453D+00 0.141D+01
 Coeff:     -0.114D-02 0.171D-01-0.131D-01 0.402D-01-0.453D+00 0.141D+01
 Gap=     0.150 Goal=   None    Shift=    0.000
 RMSDP=1.83D-07 MaxDP=1.24D-06 DE=-9.07D-11 OVMax= 4.73D-06

 Cycle  13  Pass 1  IDiag  1:
 E= -76.0809225275965     Delta-E=       -0.000000000013 Rises=F Damp=F
 DIIS: error= 6.36D-08 at cycle   7 NSaved=   7.
 NSaved= 7 IEnMin= 7 EnMin= -76.0809225275965     IErMin= 7 ErrMin= 6.36D-08
 ErrMax= 6.36D-08  0.00D+00 EMaxC= 1.00D-01 BMatC= 8.03D-14 BMatP= 3.15D-12
 IDIUse=1 WtCom= 1.00D+00 WtEn= 0.00D+00
 Coeff-Com: -0.534D-03 0.555D-02-0.386D-02 0.187D-01-0.114D+00 0.483D-01
 Coeff-Com:  0.105D+01
 Coeff:     -0.534D-03 0.555D-02-0.386D-02 0.187D-01-0.114D+00 0.483D-01
 Coeff:      0.105D+01
 Gap=     0.150 Goal=   None    Shift=    0.000
 RMSDP=3.87D-08 MaxDP=2.59D-07 DE=-1.28D-11 OVMax= 9.65D-07

 Cycle  14  Pass 1  IDiag  1:
 E= -76.0809225275969     Delta-E=       -0.000000000000 Rises=F Damp=F
 DIIS: error= 3.34D-08 at cycle   8 NSaved=   8.
 NSaved= 8 IEnMin= 8 EnMin= -76.0809225275969     IErMin= 8 ErrMin= 3.34D-08
 ErrMax= 3.34D-08  0.00D+00 EMaxC= 1.00D-01 BMatC= 1.37D-14 BMatP= 8.03D-14
 IDIUse=1 WtCom= 1.00D+00 WtEn= 0.00D+00
 Coeff-Com:  0.163D-03-0.198D-02 0.135D-02-0.560D-02 0.562D-01-0.120D+00
 Coeff-Com: -0.851D-01 0.116D+01
 Coeff:      0.163D-03-0.198D-02 0.135D-02-0.560D-02 0.562D-01-0.120D+00
 Coeff:     -0.851D-01 0.116D+01
 Gap=     0.150 Goal=   None    Shift=    0.000
 RMSDP=9.26D-09 MaxDP=6.74D-08 DE=-3.98D-13 OVMax= 1.50D-07

 SCF Done:  E(RwB97XD) =  -76.0809225276     A.U. after   14 cycles
            NFock= 14  Conv=0.93D-08     -V/T= 2.0078
 KE= 7.549253080545D+01 PE=-1.915735559741D+02 EE= 3.432273174762D+01
 Leave Link  502 at Sun Jul  9 12:51:41 2023, MaxMem=  2013265920 cpu:               5.6 elap:               0.3
 (Enter /home/software/GAUSSIAN/g16_new_pgi/l701.exe)
 ... and contract with generalized density number  0.
 Compute integral first derivatives.
 R6Disp: Adding Grimme-D2 dispersion energy 1st derivatives to the gradient.
 Leave Link  701 at Sun Jul  9 12:51:42 2023, MaxMem=  2013265920 cpu:               1.9 elap:               0.1
 (Enter /home/software/GAUSSIAN/g16_new_pgi/l702.exe)
 L702 exits ... SP integral derivatives will be done elsewhere.
 Leave Link  702 at Sun Jul  9 12:51:42 2023, MaxMem=  2013265920 cpu:               0.4 elap:               0.0
 (Enter /home/software/GAUSSIAN/g16_new_pgi/l703.exe)
 Integral derivatives from FoFJK, PRISM(SPDF).
 Compute integral first derivatives, UseDBF=F ICtDFT=           0.
 Calling FoFJK, ICntrl=      2127 FMM=F ISym2X=1 I1Cent= 0 IOpClX= 0 NMat=1 NMatS=1 NMatT=0.
 FoFJK:  IHMeth= 1 ICntrl=    2127 DoSepK=T KAlg= 0 I1Cent=           0 FoldK=F
 IRaf=         1 NMat=       1 IRICut=       1 DoRegI=T DoRafI=F ISym2E= 1 IDoP0=0 IntGTp=1.
 FoFCou: FMM=F IPFlag=           0 FMFlag=      100000 FMFlg1=         800
         NFxFlg=           0 DoJE=F BraDBF=F KetDBF=F FulRan=T
         wScrn=  0.000000 ICntrl=      2527 IOpCl=  0 I1Cent=           0 NGrid=           0
         NMat0=    1 NMatS0=      1 NMatT0=    0 NMatD0=    1 NMtDS0=    0 NMtDT0=    0
 Petite list used in FoFCou.
 Leave Link  703 at Sun Jul  9 12:51:42 2023, MaxMem=  2013265920 cpu:               6.3 elap:               0.3
 (Enter /home/software/GAUSSIAN/g16_new_pgi/l716.exe)
 Dipole        =-4.75009153D-01 8.50556255D-01 3.14495062D-31
 ***** Axes restored to original set *****
 -------------------------------------------------------------------
 Center     Atomic                   Forces (Hartrees/Bohr)
 Number     Number              X              Y              Z
 -------------------------------------------------------------------
      1        8          -0.000000000    0.015490631   -0.008299913
      2        1           0.000000000   -0.015478151    0.008318254
      3        1          -0.000000000   -0.000012480   -0.000018341
 -------------------------------------------------------------------
 Cartesian Forces:  Max     0.015490631 RMS     0.008283955
 Leave Link  716 at Sun Jul  9 12:51:42 2023, MaxMem=  2013265920 cpu:               0.4 elap:               0.0
 (Enter /home/software/GAUSSIAN/g16_new_pgi/l103.exe)

 GradGradGradGradGradGradGradGradGradGradGradGradGradGradGradGradGradGrad
 Berny optimization.
 Using GEDIIS/GDIIS optimizer.
 FormGI is forming the generalized inverse of G from B-inverse, IUseBI=4.
 Internal  Forces:  Max     0.017571014 RMS     0.010144637
 Search for a local minimum.
 Step number   3 out of a maximum of  100 on scan point     6 out of     6
 All quantities printed in internal units (Hartrees-Bohrs-Radians)
 RMS Force = .14581D-04 SwitMx=.10000D-02 MixMth= 2
 Mixed Optimization -- En-DIIS/RFO-DIIS
 Swapping is turned off.
 Update second derivatives using D2CorX and points    1    2    3
 DE= -4.34D-06 DEPred=-4.31D-06 R= 1.01D+00
 TightC=F SS=  1.41D+00  RLast= 2.84D-02 DXNew= 8.4853D-01 8.5081D-02
 Trust test= 1.01D+00 RLast= 2.84D-02 DXMaxT set to 5.05D-01
 The second derivative matrix:
                          R1        R2        A1
           R1           0.33687
           R2           0.00067   0.57409
           A1          -0.00070   0.00082   0.01027
 ITU=  1  1  0
     Eigenvalues ---    0.01027   0.574091000.00000
 En-DIIS/RFO-DIIS/Sim-DIIS IScMMF=       -3 using points:     3    2
 RFO step:  Lambda=-3.10374456D-07.
 NNeg= 0 NGDIIS= 2 SimSw=  2.50D-03 Rises=F DC= -4.34D-06 SmlDif=  1.00D-05
 NRisDI= 0 DoIntr=F SqrtH=F CThrHd= 10.0 CDAdj=  3.0
 RMS Error=  0.4055470751D-03 NUsed= 2 OKEnD=F EnDIS=F
 InvSVX:  RCond= 2.01D-04 Info=           0 Equed=N FErr=  9.34D-16 BErr=  2.75D-17
 DidBck=F Rises=F RFO-DIIS coefs:    1.02473   -0.02473
 Iteration  1 RMS(Cart)=  0.00058858 RMS(Int)=  0.00000023
 Iteration  2 RMS(Cart)=  0.00000016 RMS(Int)=  0.00000000
 Iteration  1 RMS(Cart)=  0.00000000 RMS(Int)=  0.00000000
 ITry= 1 IFail=0 DXMaxC= 7.69D-04 DCOld= 1.00D+10 DXMaxT= 5.05D-01 DXLimC= 3.00D+00 Rises=F
 ClnCor:  largest displacement from symmetrization is 4.44D-16 for atom     2.
 Variable       Old X    -DE/DX   Delta X   Delta X   Delta X     New X
                                 (Linear)    (Quad)   (Total)
    R1        6.80301  -0.01757   0.00000   0.00000  -0.00000   6.80301
    R2        1.83516   0.00002  -0.00000   0.00004   0.00003   1.83519
    A1        1.56315   0.00001   0.00070   0.00000   0.00070   1.56385
         Item               Value     Threshold  Converged?
 Maximum Force            0.000019     0.000450     YES
 RMS     Force            0.000015     0.000300     YES
 Maximum Displacement     0.000769     0.001800     YES
 RMS     Displacement     0.000589     0.001200     YES
 Predicted change in Energy=-2.851702D-09
 Optimization completed.
    -- Stationary point found.
                           ----------------------------
                           !   Optimized Parameters   !
                           ! (Angstroms and Degrees)  !
 --------------------------                            --------------------------
 ! Name  Definition              Value          Derivative Info.                !
 --------------------------------------------------------------------------------
 ! R1    R(1,2)                  3.6            -DE/DX =   -0.0176              !
 ! R2    R(1,3)                  0.9711         -DE/DX =    0.0                 !
 ! A1    A(2,1,3)               89.5618         -DE/DX =    0.0                 !
 --------------------------------------------------------------------------------
 Lowest energy point so far.  Saving SCF results.
 Summary of Optimized Potential Surface Scan (add -76.0 to energies):
                           1         2         3         4         5
     Eigenvalues --    -0.38359  -0.27370  -0.19003  -0.13645  -0.10228
           R1           1.10000   1.60000   2.10000   2.60000   3.10000
           R2           0.96341   0.96950   0.97097   0.97135   0.97132
           A1         101.37410  93.81398  89.02714  86.06963  86.34778
                           6
     Eigenvalues --    -0.08092
           R1           3.60000
           R2           0.97112
           A1          89.56182
 Largest change from initial coordinates is atom    2       1.317 Angstoms.
 GradGradGradGradGradGradGradGradGradGradGradGradGradGradGradGradGradGrad

 Leave Link  103 at Sun Jul  9 12:51:42 2023, MaxMem=  2013265920 cpu:               0.1 elap:               0.0
 (Enter /home/software/GAUSSIAN/g16_new_pgi/l202.exe)
                          Input orientation:                          
 ---------------------------------------------------------------------
 Center     Atomic      Atomic             Coordinates (Angstroms)
 Number     Number       Type             X           Y           Z
 ---------------------------------------------------------------------
      1          8           0        0.000000   -0.906288    0.537146
      2          1           0       -0.000000    2.265419   -1.165873
      3          1           0       -0.000000   -1.359132   -0.321931
 ---------------------------------------------------------------------
                    Distance matrix (angstroms):
                    1          2          3
     1  O    0.000000
     2  H    3.600000   0.000000
     3  H    0.971123   3.721506   0.000000
 Stoichiometry    H2O
 Framework group  CS[SG(H2O)]
 Deg. of freedom     3
 Full point group                 CS      NOp   2
 RotChk:  IX=1 Diff= 4.75D-16
 Largest Abelian subgroup         CS      NOp   2
 Largest concise Abelian subgroup C1      NOp   1
                         Standard orientation:                         
 ---------------------------------------------------------------------
 Center     Atomic      Atomic             Coordinates (Angstroms)
 Number     Number       Type             X           Y           Z
 ---------------------------------------------------------------------
      1          8           0        0.000000   -0.373585   -0.000000
      2          1           0        0.935783    3.102665    0.000000
      3          1           0       -0.935783   -0.113987    0.000000
 ---------------------------------------------------------------------
 Rotational constants (GHZ):         565.2662276          40.9853167          38.2145259
 Leave Link  202 at Sun Jul  9 12:51:42 2023, MaxMem=  2013265920 cpu:               0.2 elap:               0.0
 (Enter /home/software/GAUSSIAN/g16_new_pgi/l601.exe)
 Copying SCF densities to generalized density rwf, IOpCl= 0 IROHF=0.

 **********************************************************************

            Population analysis using the SCF density.

 **********************************************************************

 Orbital symmetries:
       Occupied  (A') (A') (A') (A") (A')
       Virtual   (A') (A') (A') (A') (A') (A') (A") (A') (A') (A")
                 (A") (A') (A') (A") (A') (A') (A') (A") (A') (A')
 The electronic state is 1-A'.
 Alpha  occ. eigenvalues --  -19.30026  -1.04595  -0.51448  -0.37655  -0.33517
 Alpha virt. eigenvalues --   -0.18507   0.18998   0.79425   0.86958   0.95894
 Alpha virt. eigenvalues --    0.98621   0.99017   1.18960   1.65833   1.67360
 Alpha virt. eigenvalues --    1.90176   1.90266   2.04579   2.04591   2.04642
 Alpha virt. eigenvalues --    2.44442   2.72635   2.73999   3.44430   3.61638
          Condensed to atoms (all electrons):
               1          2          3
     1  O    8.171295   0.009008   0.249196
     2  H    0.009008   0.889795   0.000260
     3  H    0.249196   0.000260   0.421983
 Mulliken charges:
               1
     1  O   -0.429499
     2  H    0.100938
     3  H    0.328561
 Sum of Mulliken charges =   0.00000
 Mulliken charges with hydrogens summed into heavy atoms:
               1
     1  O    0.000000
 Electronic spatial extent (au):  <R**2>=             55.8650
 Charge=              0.0000 electrons
 Dipole moment (field-independent basis, Debye):
    X=             -1.2074    Y=              2.1619    Z=              0.0000  Tot=              2.4762
 Quadrupole moment (field-independent basis, Debye-Ang):
   XX=             -5.1252   YY=             -2.1536   ZZ=             -7.7858
   XY=              1.7924   XZ=              0.0000   YZ=              0.0000
 Traceless Quadrupole moment (field-independent basis, Debye-Ang):
   XX=             -0.1037   YY=              2.8680   ZZ=             -2.7643
   XY=              1.7924   XZ=              0.0000   YZ=              0.0000
 Octapole moment (field-independent basis, Debye-Ang**2):
  XXX=             -3.3562  YYY=             10.3118  ZZZ=              0.0000  XYY=              3.9051
  XXY=             -0.5054  XXZ=              0.0000  XZZ=             -0.7526  YZZ=             -1.5270
  YYZ=              0.0000  XYZ=              0.0000
 Hexadecapole moment (field-independent basis, Debye-Ang**3):
 XXXX=            -12.2031 YYYY=            -31.3098 ZZZZ=             -6.0737 XXXY=             -9.3279
 XXXZ=              0.0000 YYYX=              4.1717 YYYZ=              0.0000 ZZZX=              0.0000
 ZZZY=              0.0000 XXYY=            -11.3084 XXZZ=             -3.4012 YYZZ=            -14.5719
 XXYZ=              0.0000 YYXZ=              0.0000 ZZXY=             -3.5964
 N-N= 5.677370893394D+00 E-N=-1.915735547546D+02  KE= 7.549253080545D+01
 Symmetry A'   KE= 7.076436054842D+01
 Symmetry A"   KE= 4.728170257028D+00
 No NMR shielding tensors so no spin-rotation constants.
 Leave Link  601 at Sun Jul  9 12:51:42 2023, MaxMem=  2013265920 cpu:               1.9 elap:               0.1
 (Enter /home/software/GAUSSIAN/g16_new_pgi/l9999.exe)
 1\1\GINC-ET075\Scan\RwB97XD\6-31G(d,p)\H2O1\SB734\09-Jul-2023\0\\#p op
 t=(modredundant,maxcycle=512) wb97xd/6-31g(d,p) integral=fine\\water s
 can\\0,1\O,0.,-0.9062879357,0.537145766\H,0.,2.2654194415,-1.165872816
 1\H,0.,-1.3591315058,-0.3219309499\\Version=ES64L-G16RevA.03\State=1-A
 '\HF=-76.3835874,-76.2736987,-76.1900331,-76.1364495,-76.1022846,-76.0
 809225\RMSD=2.770e-09,6.144e-09,3.904e-09,3.450e-09,1.141e-09,9.262e-0
 9\PG=CS [SG(H2O1)]\\@


 NOTHING WILL BE ATTEMPTED IF ALL POSSIBLE OBJECTIONS
 MUST FIRST BE OVERCOME.

                               -- THE GOLDEN PRINCIPLE,
                    PAUL DICKSON'S "THE OFFICIAL RULES"
 Job cpu time:       0 days  0 hours  7 minutes 33.7 seconds.
 Elapsed time:       0 days  0 hours  0 minutes 26.9 seconds.
 File lengths (MBytes):  RWF=      6 Int=      0 D2E=      0 Chk=      2 Scr=      1
 Normal termination of Gaussian 16 at Sun Jul  9 12:51:42 2023.
