 Entering Gaussian System, Link 0=g16
 Initial command:
 /home/software/GAUSSIAN/g16_new_pgi/l1.exe "/scr/Gau-4309.inp" -scrdir="/scr/"
 Entering Link 1 = /home/software/GAUSSIAN/g16_new_pgi/l1.exe PID=      4312.
  
 Copyright (c) 1988,1990,1992,1993,1995,1998,2003,2009,2016,
            Gaussian, Inc.  All Rights Reserved.
  
 This is part of the Gaussian(R) 16 program.  It is based on
 the Gaussian(R) 09 system (copyright 2009, Gaussian, Inc.),
 the Gaussian(R) 03 system (copyright 2003, Gaussian, Inc.),
 the Gaussian(R) 98 system (copyright 1998, Gaussian, Inc.),
 the Gaussian(R) 94 system (copyright 1995, Gaussian, Inc.),
 the Gaussian 92(TM) system (copyright 1992, Gaussian, Inc.),
 the Gaussian 90(TM) system (copyright 1990, Gaussian, Inc.),
 the Gaussian 88(TM) system (copyright 1988, Gaussian, Inc.),
 the Gaussian 86(TM) system (copyright 1986, Carnegie Mellon
 University), and the Gaussian 82(TM) system (copyright 1983,
 Carnegie Mellon University). Gaussian is a federally registered
 trademark of Gaussian, Inc.
  
 This software contains proprietary and confidential information,
 including trade secrets, belonging to Gaussian, Inc.
  
 This software is provided under written license and may be
 used, copied, transmitted, or stored only in accord with that
 written license.
  
 The following legend is applicable only to US Government
 contracts under FAR:
  
                    RESTRICTED RIGHTS LEGEND
  
 Use, reproduction and disclosure by the US Government is
 subject to restrictions as set forth in subparagraphs (a)
 and (c) of the Commercial Computer Software - Restricted
 Rights clause in FAR 52.227-19.
  
 Gaussian, Inc.
 340 Quinnipiac St., Bldg. 40, Wallingford CT 06492
  
  
 ---------------------------------------------------------------
 Warning -- This program may not be used in any manner that
 competes with the business of Gaussian, Inc. or will provide
 assistance to any competitor of Gaussian, Inc.  The licensee
 of this program is prohibited from giving any competitor of
 Gaussian, Inc. access to this program.  By using this program,
 the user acknowledges that Gaussian, Inc. is engaged in the
 business of creating and licensing software in the field of
 computational chemistry and represents and warrants to the
 licensee that it is not a competitor of Gaussian, Inc. and that
 it will not use this program in any manner prohibited above.
 ---------------------------------------------------------------
  

 Cite this work as:
 Gaussian 16, Revision A.03,
 M. J. Frisch, G. W. Trucks, H. B. Schlegel, G. E. Scuseria, 
 M. A. Robb, J. R. Cheeseman, G. Scalmani, V. Barone, 
 G. A. Petersson, H. Nakatsuji, X. Li, M. Caricato, A. V. Marenich, 
 J. Bloino, B. G. Janesko, R. Gomperts, B. Mennucci, H. P. Hratchian, 
 J. V. Ortiz, A. F. Izmaylov, J. L. Sonnenberg, D. Williams-Young, 
 F. Ding, F. Lipparini, F. Egidi, J. Goings, B. Peng, A. Petrone, 
 T. Henderson, D. Ranasinghe, V. G. Zakrzewski, J. Gao, N. Rega, 
 G. Zheng, W. Liang, M. Hada, M. Ehara, K. Toyota, R. Fukuda, 
 J. Hasegawa, M. Ishida, T. Nakajima, Y. Honda, O. Kitao, H. Nakai, 
 T. Vreven, K. Throssell, J. A. Montgomery, Jr., J. E. Peralta, 
 F. Ogliaro, M. J. Bearpark, J. J. Heyd, E. N. Brothers, K. N. Kudin, 
 V. N. Staroverov, T. A. Keith, R. Kobayashi, J. Normand, 
 K. Raghavachari, A. P. Rendell, J. C. Burant, S. S. Iyengar, 
 J. Tomasi, M. Cossi, J. M. Millam, M. Klene, C. Adamo, R. Cammi, 
 J. W. Ochterski, R. L. Martin, K. Morokuma, O. Farkas, 
 J. B. Foresman, and D. J. Fox, Gaussian, Inc., Wallingford CT, 2016.
 
 ******************************************
 Gaussian 16:  ES64L-G16RevA.03 25-Dec-2016
                18-Aug-2023 
 ******************************************
 %chk=out.chk
 %mem=30GB
 %nprocshared=20
 Will use up to   20 processors via shared memory.
 --------------------------------------------------------------------
 #p opt=(modredundant,maxcycle=512) 6-31g(d) integral=ultrafine m062x
 --------------------------------------------------------------------
 1/6=512,18=120,19=15,26=4,38=1/1,3;
 2/9=110,12=2,17=6,18=5,40=1/2;
 3/5=1,6=6,7=1,11=2,25=1,30=1,71=1,74=-55,75=-5/1,2,3;
 4//1;
 5/5=2,38=5/2;
 6/7=2,8=2,9=2,10=2,28=1/1;
 7//1,2,3,16;
 1/6=512,18=20,19=15,26=4/3(2);
 2/9=110/2;
 99//99;
 2/9=110/2;
 3/5=1,6=6,7=1,11=2,25=1,30=1,71=1,74=-55,75=-5/1,2,3;
 4/5=5,16=3,69=1/1;
 5/5=2,38=5/2;
 7//1,2,3,16;
 1/6=512,18=20,19=15,26=4/3(-5);
 2/9=110/2;
 6/7=2,8=2,9=2,10=2,19=2,28=1/1;
 99/9=1/99;
 Leave Link    1 at Fri Aug 18 10:27:50 2023, MaxMem=  4026531840 cpu:               1.7 elap:               0.1
 (Enter /home/software/GAUSSIAN/g16_new_pgi/l101.exe)
 -------------------------
 Ground-state optimization
 -------------------------
 Symbolic Z-matrix:
 Charge =  0 Multiplicity = 1
 C
 C                    1    B1
 C                    2    B2       1    A1
 C                    3    B3       2    A2       1    D1       0
 C                    4    B4       3    A3       2    D2       0
 C                    1    B5       2    A4       3    D3       0
 C                    3    B6       2    A5       1    D4       0
 C                    7    B7       3    A6       2    D5       0
 C                    8    B8       7    A7       3    D6       0
 C                    9    B9       8    A8       7    D7       0
 C                    10   B10      9    A9       8    D8       0
 C                    7    B11      3    A10      2    D9       0
 H                    1    B12      2    A11      3    D10      0
 H                    2    B13      1    A12      6    D11      0
 H                    5    B14      4    A13      3    D12      0
 H                    6    B15      1    A14      2    D13      0
 H                    7    B16      3    A15      2    D14      0
 H                    8    B17      7    A16      3    D15      0
 H                    9    B18      8    A17      7    D16      0
 H                    10   B19      9    A18      8    D17      0
 H                    4    B20      3    A19      2    D18      0
 H                    11   B21      10   A20      9    D19      0
       Variables:
  B1                    1.39094                  
  B2                    1.39961                  
  B3                    1.3997                   
  B4                    1.39083                  
  B5                    1.39258                  
  B6                    2.50713                  
  B7                    1.39094                  
  B8                    1.39258                  
  B9                    1.39271                  
  B10                   1.39083                  
  B11                   1.39961                  
  B12                   1.08578                  
  B13                   1.08645                  
  B14                   1.08577                  
  B15                   1.08552                  
  B16                   1.08645                  
  B17                   1.08578                  
  B18                   1.08552                  
  B19                   1.08577                  
  B20                   1.08648                  
  B21                   1.08648                  
  A1                  120.78309                  
  A2                  118.48523                  
  A3                  120.78448                  
  A4                  120.19132                  
  A5                   97.30646                  
  A6                  151.35859                  
  A7                  120.19127                  
  A8                  119.56591                  
  A9                  120.18996                  
  A10                  30.57547                  
  A11                 119.70539                  
  A12                 119.87749                  
  A13                 119.71633                  
  A14                 120.22387                  
  A15                  88.75531                  
  A16                 119.70552                  
  A17                 120.22378                  
  A18                 120.09166                  
  A19                 119.31685                  
  A20                 119.88016                  
  D1                   -0.03152                  
  D2                   -0.03056                  
  D3                    0.06301                  
  D4                  162.34858                  
  D5                  147.10792                  
  D6                    0.09581                  
  D7                   -0.03198                  
  D8                   -0.02968                  
  D9                  147.1632                   
  D10                 179.52418                  
  D11                -178.36917                  
  D12                 179.52498                  
  D13                 179.96768                  
  D14                 -34.22338                  
  D15                 179.55691                  
  D16                 179.96774                  
  D17                -179.4913                   
  D18                 178.40712                  
  D19                -178.36754                  
 
 The following ModRedundant input section has been read:
 D       4       3      12      11 S  18 20.000                                
 
 ITRead=  0  0  0  0  0  0  0  0  0  0  0  0  0  0  0  0  0  0  0  0
 ITRead=  0  0
 MicOpt= -1 -1 -1 -1 -1 -1 -1 -1 -1 -1 -1 -1 -1 -1 -1 -1 -1 -1 -1 -1
 MicOpt= -1 -1
 NAtoms=     22 NQM=       22 NQMF=       0 NMMI=      0 NMMIF=      0
                NMic=       0 NMicF=      0.
                    Isotopes and Nuclear Properties:
 (Nuclear quadrupole moments (NQMom) in fm**2, nuclear magnetic moments (NMagM)
  in nuclear magnetons)

  Atom         1           2           3           4           5           6           7           8           9          10
 IAtWgt=          12          12          12          12          12          12          12          12          12          12
 AtmWgt=  12.0000000  12.0000000  12.0000000  12.0000000  12.0000000  12.0000000  12.0000000  12.0000000  12.0000000  12.0000000
 NucSpn=           0           0           0           0           0           0           0           0           0           0
 AtZEff=  -0.0000000  -0.0000000  -0.0000000  -0.0000000  -0.0000000  -0.0000000  -0.0000000  -0.0000000  -0.0000000  -0.0000000
 NQMom=    0.0000000   0.0000000   0.0000000   0.0000000   0.0000000   0.0000000   0.0000000   0.0000000   0.0000000   0.0000000
 NMagM=    0.0000000   0.0000000   0.0000000   0.0000000   0.0000000   0.0000000   0.0000000   0.0000000   0.0000000   0.0000000
 AtZNuc=   6.0000000   6.0000000   6.0000000   6.0000000   6.0000000   6.0000000   6.0000000   6.0000000   6.0000000   6.0000000

  Atom        11          12          13          14          15          16          17          18          19          20
 IAtWgt=          12          12           1           1           1           1           1           1           1           1
 AtmWgt=  12.0000000  12.0000000   1.0078250   1.0078250   1.0078250   1.0078250   1.0078250   1.0078250   1.0078250   1.0078250
 NucSpn=           0           0           1           1           1           1           1           1           1           1
 AtZEff=  -0.0000000  -0.0000000  -0.0000000  -0.0000000  -0.0000000  -0.0000000  -0.0000000  -0.0000000  -0.0000000  -0.0000000
 NQMom=    0.0000000   0.0000000   0.0000000   0.0000000   0.0000000   0.0000000   0.0000000   0.0000000   0.0000000   0.0000000
 NMagM=    0.0000000   0.0000000   2.7928460   2.7928460   2.7928460   2.7928460   2.7928460   2.7928460   2.7928460   2.7928460
 AtZNuc=   6.0000000   6.0000000   1.0000000   1.0000000   1.0000000   1.0000000   1.0000000   1.0000000   1.0000000   1.0000000

  Atom        21          22
 IAtWgt=           1           1
 AtmWgt=   1.0078250   1.0078250
 NucSpn=           1           1
 AtZEff=  -0.0000000  -0.0000000
 NQMom=    0.0000000   0.0000000
 NMagM=    2.7928460   2.7928460
 AtZNuc=   1.0000000   1.0000000
 Leave Link  101 at Fri Aug 18 10:27:51 2023, MaxMem=  4026531840 cpu:               8.0 elap:               0.4
 (Enter /home/software/GAUSSIAN/g16_new_pgi/l103.exe)

 GradGradGradGradGradGradGradGradGradGradGradGradGradGradGradGradGradGrad
 Berny optimization.
 Initialization pass.
                           ----------------------------
                           !    Initial Parameters    !
                           ! (Angstroms and Degrees)  !
 --------------------------                            --------------------------
 ! Name  Definition              Value          Derivative Info.                !
 --------------------------------------------------------------------------------
 ! R1    R(1,2)                  1.3909         estimate D2E/DX2                !
 ! R2    R(1,6)                  1.3926         estimate D2E/DX2                !
 ! R3    R(1,13)                 1.0858         estimate D2E/DX2                !
 ! R4    R(2,3)                  1.3996         estimate D2E/DX2                !
 ! R5    R(2,14)                 1.0865         estimate D2E/DX2                !
 ! R6    R(3,4)                  1.3997         estimate D2E/DX2                !
 ! R7    R(3,12)                 1.484          estimate D2E/DX2                !
 ! R8    R(4,5)                  1.3908         estimate D2E/DX2                !
 ! R9    R(4,21)                 1.0865         estimate D2E/DX2                !
 ! R10   R(5,6)                  1.3927         estimate D2E/DX2                !
 ! R11   R(5,15)                 1.0858         estimate D2E/DX2                !
 ! R12   R(6,16)                 1.0855         estimate D2E/DX2                !
 ! R13   R(7,8)                  1.3909         estimate D2E/DX2                !
 ! R14   R(7,12)                 1.3996         estimate D2E/DX2                !
 ! R15   R(7,17)                 1.0864         estimate D2E/DX2                !
 ! R16   R(8,9)                  1.3926         estimate D2E/DX2                !
 ! R17   R(8,18)                 1.0858         estimate D2E/DX2                !
 ! R18   R(9,10)                 1.3927         estimate D2E/DX2                !
 ! R19   R(9,19)                 1.0855         estimate D2E/DX2                !
 ! R20   R(10,11)                1.3908         estimate D2E/DX2                !
 ! R21   R(10,20)                1.0858         estimate D2E/DX2                !
 ! R22   R(11,12)                1.3997         estimate D2E/DX2                !
 ! R23   R(11,22)                1.0865         estimate D2E/DX2                !
 ! A1    A(2,1,6)              120.1913         estimate D2E/DX2                !
 ! A2    A(2,1,13)             119.7054         estimate D2E/DX2                !
 ! A3    A(6,1,13)             120.1011         estimate D2E/DX2                !
 ! A4    A(1,2,3)              120.7831         estimate D2E/DX2                !
 ! A5    A(1,2,14)             119.8775         estimate D2E/DX2                !
 ! A6    A(3,2,14)             119.3211         estimate D2E/DX2                !
 ! A7    A(2,3,4)              118.4852         estimate D2E/DX2                !
 ! A8    A(2,3,12)             120.7567         estimate D2E/DX2                !
 ! A9    A(4,3,12)             120.7581         estimate D2E/DX2                !
 ! A10   A(3,4,5)              120.7845         estimate D2E/DX2                !
 ! A11   A(3,4,21)             119.3169         estimate D2E/DX2                !
 ! A12   A(5,4,21)             119.8803         estimate D2E/DX2                !
 ! A13   A(4,5,6)              120.1899         estimate D2E/DX2                !
 ! A14   A(4,5,15)             119.7163         estimate D2E/DX2                !
 ! A15   A(6,5,15)             120.0916         estimate D2E/DX2                !
 ! A16   A(1,6,5)              119.5659         estimate D2E/DX2                !
 ! A17   A(1,6,16)             120.2239         estimate D2E/DX2                !
 ! A18   A(5,6,16)             120.2102         estimate D2E/DX2                !
 ! A19   A(8,7,12)             120.7831         estimate D2E/DX2                !
 ! A20   A(8,7,17)             119.8776         estimate D2E/DX2                !
 ! A21   A(12,7,17)            119.321          estimate D2E/DX2                !
 ! A22   A(7,8,9)              120.1913         estimate D2E/DX2                !
 ! A23   A(7,8,18)             119.7055         estimate D2E/DX2                !
 ! A24   A(9,8,18)             120.101          estimate D2E/DX2                !
 ! A25   A(8,9,10)             119.5659         estimate D2E/DX2                !
 ! A26   A(8,9,19)             120.2238         estimate D2E/DX2                !
 ! A27   A(10,9,19)            120.2103         estimate D2E/DX2                !
 ! A28   A(9,10,11)            120.19           estimate D2E/DX2                !
 ! A29   A(9,10,20)            120.0917         estimate D2E/DX2                !
 ! A30   A(11,10,20)           119.7162         estimate D2E/DX2                !
 ! A31   A(10,11,12)           120.7845         estimate D2E/DX2                !
 ! A32   A(10,11,22)           119.8802         estimate D2E/DX2                !
 ! A33   A(12,11,22)           119.317          estimate D2E/DX2                !
 ! A34   A(3,12,7)             120.7566         estimate D2E/DX2                !
 ! A35   A(3,12,11)            120.7582         estimate D2E/DX2                !
 ! A36   A(7,12,11)            118.4852         estimate D2E/DX2                !
 ! D1    D(6,1,2,3)              0.063          estimate D2E/DX2                !
 ! D2    D(6,1,2,14)          -178.3692         estimate D2E/DX2                !
 ! D3    D(13,1,2,3)           179.5242         estimate D2E/DX2                !
 ! D4    D(13,1,2,14)            1.092          estimate D2E/DX2                !
 ! D5    D(2,1,6,5)             -0.0319         estimate D2E/DX2                !
 ! D6    D(2,1,6,16)           179.9677         estimate D2E/DX2                !
 ! D7    D(13,1,6,5)          -179.491          estimate D2E/DX2                !
 ! D8    D(13,1,6,16)            0.5087         estimate D2E/DX2                !
 ! D9    D(1,2,3,4)             -0.0315         estimate D2E/DX2                !
 ! D10   D(1,2,3,12)           179.9691         estimate D2E/DX2                !
 ! D11   D(14,2,3,4)           178.4093         estimate D2E/DX2                !
 ! D12   D(14,2,3,12)           -1.5901         estimate D2E/DX2                !
 ! D13   D(2,3,4,5)             -0.0306         estimate D2E/DX2                !
 ! D14   D(2,3,4,21)           178.4071         estimate D2E/DX2                !
 ! D15   D(12,3,4,5)           179.9688         estimate D2E/DX2                !
 ! D16   D(12,3,4,21)           -1.5935         estimate D2E/DX2                !
 ! D17   D(2,3,12,7)           -38.7466         estimate D2E/DX2                !
 ! D18   D(2,3,12,11)          141.2542         estimate D2E/DX2                !
 ! D19   D(4,3,12,7)           141.2541         estimate D2E/DX2                !
 ! D20   D(4,3,12,11)          -38.7452         Scan                            !
 ! D21   D(3,4,5,6)              0.0614         estimate D2E/DX2                !
 ! D22   D(3,4,5,15)           179.525          estimate D2E/DX2                !
 ! D23   D(21,4,5,6)          -178.3675         estimate D2E/DX2                !
 ! D24   D(21,4,5,15)            1.0961         estimate D2E/DX2                !
 ! D25   D(4,5,6,1)             -0.0297         estimate D2E/DX2                !
 ! D26   D(4,5,6,16)           179.9707         estimate D2E/DX2                !
 ! D27   D(15,5,6,1)          -179.4913         estimate D2E/DX2                !
 ! D28   D(15,5,6,16)            0.5091         estimate D2E/DX2                !
 ! D29   D(12,7,8,9)             0.0631         estimate D2E/DX2                !
 ! D30   D(12,7,8,18)          179.5242         estimate D2E/DX2                !
 ! D31   D(17,7,8,9)          -178.3692         estimate D2E/DX2                !
 ! D32   D(17,7,8,18)            1.0919         estimate D2E/DX2                !
 ! D33   D(8,7,12,3)           179.9692         estimate D2E/DX2                !
 ! D34   D(8,7,12,11)           -0.0316         estimate D2E/DX2                !
 ! D35   D(17,7,12,3)           -1.59           estimate D2E/DX2                !
 ! D36   D(17,7,12,11)         178.4093         estimate D2E/DX2                !
 ! D37   D(7,8,9,10)            -0.032          estimate D2E/DX2                !
 ! D38   D(7,8,9,19)           179.9677         estimate D2E/DX2                !
 ! D39   D(18,8,9,10)         -179.4909         estimate D2E/DX2                !
 ! D40   D(18,8,9,19)            0.5088         estimate D2E/DX2                !
 ! D41   D(8,9,10,11)           -0.0297         estimate D2E/DX2                !
 ! D42   D(8,9,10,20)         -179.4913         estimate D2E/DX2                !
 ! D43   D(19,9,10,11)         179.9706         estimate D2E/DX2                !
 ! D44   D(19,9,10,20)           0.509          estimate D2E/DX2                !
 ! D45   D(9,10,11,12)           0.0613         estimate D2E/DX2                !
 ! D46   D(9,10,11,22)        -178.3675         estimate D2E/DX2                !
 ! D47   D(20,10,11,12)        179.525          estimate D2E/DX2                !
 ! D48   D(20,10,11,22)          1.0961         estimate D2E/DX2                !
 ! D49   D(10,11,12,3)         179.9688         estimate D2E/DX2                !
 ! D50   D(10,11,12,7)          -0.0305         estimate D2E/DX2                !
 ! D51   D(22,11,12,3)          -1.5936         estimate D2E/DX2                !
 ! D52   D(22,11,12,7)         178.4071         estimate D2E/DX2                !
 --------------------------------------------------------------------------------
 Trust Radius=3.00D-01 FncErr=1.00D-07 GrdErr=1.00D-06 EigMax=2.50D+02 EigMin=1.00D-04
 Number of optimizations in scan=  19
 Number of steps in this run=    132 maximum allowed number of steps=    132.
 GradGradGradGradGradGradGradGradGradGradGradGradGradGradGradGradGradGrad

 Leave Link  103 at Fri Aug 18 10:27:51 2023, MaxMem=  4026531840 cpu:               0.3 elap:               0.1
 (Enter /home/software/GAUSSIAN/g16_new_pgi/l202.exe)
                          Input orientation:                          
 ---------------------------------------------------------------------
 Center     Atomic      Atomic             Coordinates (Angstroms)
 Number     Number       Type             X           Y           Z
 ---------------------------------------------------------------------
      1          6           0        0.000000    0.000000    0.000000
      2          6           0        0.000000    0.000000    1.390942
      3          6           0        1.202418    0.000000    2.107247
      4          6           0        2.405555   -0.000677    1.391976
      5          6           0        2.406837   -0.001972    0.001148
      6          6           0        1.203675   -0.001324   -0.700312
      7          6           0        0.263562    0.754051    4.306256
      8          6           0        0.262016    0.754597    5.697197
      9          6           0        1.200426    0.002035    6.398847
     10          6           0        2.139567   -0.751282    5.698725
     11          6           0        2.139302   -0.752035    4.307895
     12          6           0        1.201735    0.000688    3.591288
     13          1           0       -0.943057   -0.007832   -0.538046
     14          1           0       -0.941700   -0.025775    1.932154
     15          1           0        3.350283    0.005337   -0.536214
     16          1           0        1.204291   -0.001854   -1.785835
     17          1           0       -0.453821    1.363724    3.764007
     18          1           0       -0.468860    1.351556    6.234199
     19          1           0        1.200031    0.002488    7.484369
     20          1           0        2.869882   -1.347654    6.237130
     21          1           0        3.346755    0.025648    1.934092
     22          1           0        2.857155   -1.362248    3.766818
 ---------------------------------------------------------------------
                    Distance matrix (angstroms):
                    1          2          3          4          5
     1  C    0.000000
     2  C    1.390942   0.000000
     3  C    2.426169   1.399608   0.000000
     4  C    2.779262   2.405556   1.399697   0.000000
     5  C    2.406838   2.779280   2.426166   1.390829   0.000000
     6  C    1.392578   2.412919   2.807559   2.412921   1.392711
     7  C    4.379715   3.022766   2.507128   3.694696   4.868178
     8  C    5.752923   4.379714   3.787019   4.868277   6.133321
     9  C    6.510473   5.149770   4.291601   5.149864   6.510453
    10  C    6.133322   4.868179   3.787003   4.379754   5.752850
    11  C    4.868278   3.694696   2.507222   3.022915   4.379753
    12  C    3.787020   2.507128   1.484042   2.507222   3.787002
    13  H    1.085777   2.147188   3.405980   3.865002   3.393016
    14  H    2.149578   1.086450   2.151410   3.390655   3.865495
    15  H    3.392926   3.865017   3.406058   2.147198   1.085772
    16  H    2.153956   3.397386   3.893082   3.397281   2.153932
    17  H    4.029075   2.774370   2.710669   3.957796   4.920122
    18  H    6.396231   5.050115   4.653129   5.791193   6.996613
    19  H    7.579965   6.210470   5.377124   6.210520   7.579908
    20  H    6.996727   5.791194   4.653230   5.050294   6.396307
    21  H    3.865506   3.390640   2.151469   1.086480   2.149530
    22  H    4.920159   3.957757   2.710729   2.774471   4.029070
                    6          7          8          9         10
     6  C    0.000000
     7  C    5.149770   0.000000
     8  C    6.510473   1.390941   0.000000
     9  C    7.099160   2.412919   1.392579   0.000000
    10  C    6.510453   2.779279   2.406838   1.392710   0.000000
    11  C    5.149864   2.405556   2.779262   2.412921   1.390830
    12  C    4.291601   1.399609   2.426170   2.807559   2.426165
    13  H    2.152866   5.050115   6.396229   7.260516   6.996614
    14  H    3.396043   2.774373   4.029076   4.953869   4.920124
    15  H    2.152881   5.791195   6.996727   7.260644   6.396309
    16  H    1.085523   6.210470   7.579964   8.184683   7.579909
    17  H    4.953866   1.086450   2.149577   3.396043   3.865494
    18  H    7.260516   2.147188   1.085777   2.152866   3.393015
    19  H    8.184683   3.397385   2.153956   1.085523   2.153932
    20  H    7.260644   3.865016   3.392927   2.152881   1.085772
    21  H    3.396115   3.957754   4.920156   4.953920   4.029068
    22  H    4.953923   3.390640   3.865506   3.396115   2.149530
                   11         12         13         14         15
    11  C    0.000000
    12  C    1.399696   0.000000
    13  H    5.791193   4.653129   0.000000
    14  H    3.957799   2.710671   2.470266   0.000000
    15  H    5.050294   4.653230   4.293360   4.951255   0.000000
    16  H    6.210520   5.377124   2.483569   4.292935   2.483321
    17  H    3.390654   2.151410   4.541825   2.350407   5.899857
    18  H    3.865003   3.405981   6.923590   4.541828   7.889020
    19  H    3.397282   3.893082   8.303739   5.951042   8.303815
    20  H    2.147198   3.406056   7.889020   5.899859   6.923840
    21  H    2.774468   2.710726   4.951270   4.288763   2.470391
    22  H    1.086480   2.151469   5.899822   4.425319   4.541976
                   16         17         18         19         20
    16  H    0.000000
    17  H    5.951040   0.000000
    18  H    8.303739   2.470268   0.000000
    19  H    9.270206   4.292935   2.483567   0.000000
    20  H    8.303815   4.951254   4.293360   2.483323   0.000000
    21  H    4.292873   4.425315   5.899819   5.951012   4.541972
    22  H    5.951015   4.288763   4.951270   4.292873   2.470388
                   21         22
    21  H    0.000000
    22  H    2.350500   0.000000
 Stoichiometry    C12H10
 Framework group  C1[X(C12H10)]
 Deg. of freedom    60
 Full point group                 C1      NOp   1
 Largest Abelian subgroup         C1      NOp   1
 Largest concise Abelian subgroup C1      NOp   1
                         Standard orientation:                         
 ---------------------------------------------------------------------
 Center     Atomic      Atomic             Coordinates (Angstroms)
 Number     Number       Type             X           Y           Z
 ---------------------------------------------------------------------
      1          6           0       -2.848714   -1.135481   -0.398573
      2          6           0       -1.457772   -1.134662   -0.398973
      3          6           0       -0.742021   -0.000016    0.000001
      4          6           0       -1.457845    1.134690    0.398987
      5          6           0       -2.848674    1.135510    0.398591
      6          6           0       -3.549580   -0.000044   -0.000023
      7          6           0        1.457772   -1.134662    0.398972
      8          6           0        2.848713   -1.135482    0.398574
      9          6           0        3.549580   -0.000044    0.000025
     10          6           0        2.848675    1.135509   -0.398590
     11          6           0        1.457845    1.134690   -0.398988
     12          6           0        0.742021   -0.000015   -0.000004
     13          1           0       -3.386330   -2.022770   -0.718883
     14          1           0       -0.916139   -2.014079   -0.736068
     15          1           0       -3.386466    2.022706    0.718846
     16          1           0       -4.635103    0.000074   -0.000006
     17          1           0        0.916137   -2.014078    0.736066
     18          1           0        3.386330   -2.022770    0.718885
     19          1           0        4.635103    0.000072    0.000009
     20          1           0        3.386466    2.022706   -0.718844
     21          1           0       -0.916150    2.014090    0.736123
     22          1           0        0.916153    2.014091   -0.736125
 ---------------------------------------------------------------------
 Rotational constants (GHZ):           2.8703393           0.5495716           0.4783120
 Leave Link  202 at Fri Aug 18 10:27:51 2023, MaxMem=  4026531840 cpu:               0.3 elap:               0.0
 (Enter /home/software/GAUSSIAN/g16_new_pgi/l301.exe)
 Standard basis: 6-31G(d) (6D, 7F)
 Ernie: Thresh=  0.10000D-02 Tol=  0.10000D-05 Strict=F.
 There are   200 symmetry adapted cartesian basis functions of A   symmetry.
 There are   200 symmetry adapted basis functions of A   symmetry.
   200 basis functions,   376 primitive gaussians,   200 cartesian basis functions
    41 alpha electrons       41 beta electrons
       nuclear repulsion energy       600.4924042605 Hartrees.
 IExCor= 4336 DFT=T Ex+Corr=M062X ExCW=0 ScaHFX=  0.540000
 ScaDFX=  1.000000  1.000000  1.000000  1.000000 ScalE2=  1.000000  1.000000
 IRadAn=      5 IRanWt=     -1 IRanGd=            0 ICorTp=0 IEmpDi=  4
 NAtoms=   22 NActive=   22 NUniq=   22 SFac= 1.00D+00 NAtFMM=   60 NAOKFM=F Big=F
 Integral buffers will be    131072 words long.
 Raffenetti 2 integral format.
 Two-electron integral symmetry is turned on.
 Leave Link  301 at Fri Aug 18 10:27:51 2023, MaxMem=  4026531840 cpu:               1.8 elap:               0.1
 (Enter /home/software/GAUSSIAN/g16_new_pgi/l302.exe)
 NPDir=0 NMtPBC=     1 NCelOv=     1 NCel=       1 NClECP=     1 NCelD=      1
         NCelK=      1 NCelE2=     1 NClLst=     1 CellRange=     0.0.
 One-electron integrals computed using PRISM.
 One-electron integral symmetry used in STVInt
 NBasis=   200 RedAO= T EigKep=  4.46D-04  NBF=   200
 NBsUse=   200 1.00D-06 EigRej= -1.00D+00 NBFU=   200
 Precomputing XC quadrature grid using
 IXCGrd= 4 IRadAn=           5 IRanWt=          -1 IRanGd=           0 AccXCQ= 0.00D+00.
 Generated NRdTot=       0 NPtTot=           0 NUsed=           0 NTot=          32
 NSgBfM=   199   199   199   199   199 MxSgAt=    22 MxSgA2=    22.
 Leave Link  302 at Fri Aug 18 10:27:52 2023, MaxMem=  4026531840 cpu:               4.9 elap:               0.3
 (Enter /home/software/GAUSSIAN/g16_new_pgi/l303.exe)
 DipDrv:  MaxL=1.
 Leave Link  303 at Fri Aug 18 10:27:52 2023, MaxMem=  4026531840 cpu:               1.4 elap:               0.1
 (Enter /home/software/GAUSSIAN/g16_new_pgi/l401.exe)
 ExpMin= 1.61D-01 ExpMax= 3.05D+03 ExpMxC= 4.57D+02 IAcc=3 IRadAn=         5 AccDes= 0.00D+00
 Harris functional with IExCor= 1009 and IRadAn=       5 diagonalized for initial guess.
 HarFok:  IExCor= 1009 AccDes= 0.00D+00 IRadAn=         5 IDoV= 1 UseB2=F ITyADJ=14
 ICtDFT=  3500011 ScaDFX=  1.000000  1.000000  1.000000  1.000000
 FoFCou: FMM=F IPFlag=           0 FMFlag=      100000 FMFlg1=           0
         NFxFlg=           0 DoJE=T BraDBF=F KetDBF=T FulRan=T
         wScrn=  0.000000 ICntrl=       500 IOpCl=  0 I1Cent=   200000004 NGrid=           0
         NMat0=    1 NMatS0=      1 NMatT0=    0 NMatD0=    1 NMtDS0=    0 NMtDT0=    0
 Petite list used in FoFCou.
 Harris En= -462.910429544431    
 JPrj=0 DoOrth=F DoCkMO=F.
 Leave Link  401 at Fri Aug 18 10:27:53 2023, MaxMem=  4026531840 cpu:              11.0 elap:               0.6
 (Enter /home/software/GAUSSIAN/g16_new_pgi/l502.exe)
 Integral symmetry usage will be decided dynamically.
 Closed shell SCF:
 Using DIIS extrapolation, IDIIS=  1040.
 NGot=  4026531840 LenX=  4026445562 LenY=  4026405121
 Requested convergence on RMS density matrix=1.00D-08 within 128 cycles.
 Requested convergence on MAX density matrix=1.00D-06.
 Requested convergence on             energy=1.00D-06.
 No special actions if energy rises.
 Fock matrices will be formed incrementally for  20 cycles.
 Integral accuracy reduced to 1.0D-05 until final iterations.

 Cycle   1  Pass 0  IDiag  1:
 FoFJK:  IHMeth= 1 ICntrl=       0 DoSepK=F KAlg= 0 I1Cent=           0 FoldK=F
 IRaf= 890000000 NMat=       1 IRICut=       1 DoRegI=T DoRafI=F ISym2E= 0 IDoP0=0 IntGTp=1.
 FoFCou: FMM=F IPFlag=           0 FMFlag=      100000 FMFlg1=           0
         NFxFlg=           0 DoJE=F BraDBF=F KetDBF=F FulRan=T
         wScrn=  0.000000 ICntrl=         0 IOpCl=  0 I1Cent=           0 NGrid=           0
         NMat0=    1 NMatS0=      1 NMatT0=    0 NMatD0=    1 NMtDS0=    0 NMtDT0=    0
 Symmetry not used in FoFCou.
 E= -462.828536959413    
 DIIS: error= 4.63D-02 at cycle   1 NSaved=   1.
 NSaved= 1 IEnMin= 1 EnMin= -462.828536959413     IErMin= 1 ErrMin= 4.63D-02
 ErrMax= 4.63D-02  0.00D+00 EMaxC= 1.00D-01 BMatC= 2.69D-01 BMatP= 2.69D-01
 IDIUse=3 WtCom= 5.37D-01 WtEn= 4.63D-01
 Coeff-Com:  0.100D+01
 Coeff-En:   0.100D+01
 Coeff:      0.100D+01
 Gap=     0.280 Goal=   None    Shift=    0.000
 GapD=    0.280 DampG=1.000 DampE=0.500 DampFc=0.5000 IDamp=-1.
 Damping current iteration by 5.00D-01
 RMSDP=4.73D-03 MaxDP=8.05D-02              OVMax= 1.25D-01

 Cycle   2  Pass 0  IDiag  1:
 RMSU=  2.29D-03    CP:  9.74D-01
 E= -462.973438604246     Delta-E=       -0.144901644833 Rises=F Damp=T
 DIIS: error= 1.19D-02 at cycle   2 NSaved=   2.
 NSaved= 2 IEnMin= 2 EnMin= -462.973438604246     IErMin= 2 ErrMin= 1.19D-02
 ErrMax= 1.19D-02  0.00D+00 EMaxC= 1.00D-01 BMatC= 2.26D-02 BMatP= 2.69D-01
 IDIUse=3 WtCom= 8.81D-01 WtEn= 1.19D-01
 Coeff-Com: -0.225D+00 0.122D+01
 Coeff-En:   0.000D+00 0.100D+01
 Coeff:     -0.198D+00 0.120D+01
 Gap=     0.282 Goal=   None    Shift=    0.000
 RMSDP=1.11D-03 MaxDP=1.51D-02 DE=-1.45D-01 OVMax= 5.73D-02

 Cycle   3  Pass 0  IDiag  1:
 RMSU=  9.88D-04    CP:  9.64D-01  1.20D+00
 E= -463.096940210491     Delta-E=       -0.123501606244 Rises=F Damp=F
 DIIS: error= 3.21D-03 at cycle   3 NSaved=   3.
 NSaved= 3 IEnMin= 3 EnMin= -463.096940210491     IErMin= 3 ErrMin= 3.21D-03
 ErrMax= 3.21D-03  0.00D+00 EMaxC= 1.00D-01 BMatC= 1.62D-03 BMatP= 2.26D-02
 IDIUse=3 WtCom= 9.68D-01 WtEn= 3.21D-02
 Coeff-Com: -0.787D-01 0.261D+00 0.817D+00
 Coeff-En:   0.000D+00 0.000D+00 0.100D+01
 Coeff:     -0.762D-01 0.253D+00 0.823D+00
 Gap=     0.279 Goal=   None    Shift=    0.000
 RMSDP=3.18D-04 MaxDP=6.84D-03 DE=-1.24D-01 OVMax= 1.55D-02

 Cycle   4  Pass 0  IDiag  1:
 RMSU=  2.77D-04    CP:  9.63D-01  1.24D+00  8.76D-01
 E= -463.097738401648     Delta-E=       -0.000798191157 Rises=F Damp=F
 DIIS: error= 2.46D-03 at cycle   4 NSaved=   4.
 NSaved= 4 IEnMin= 4 EnMin= -463.097738401648     IErMin= 4 ErrMin= 2.46D-03
 ErrMax= 2.46D-03  0.00D+00 EMaxC= 1.00D-01 BMatC= 6.36D-04 BMatP= 1.62D-03
 IDIUse=3 WtCom= 9.75D-01 WtEn= 2.46D-02
 Coeff-Com: -0.315D-01 0.895D-01 0.433D+00 0.509D+00
 Coeff-En:   0.000D+00 0.000D+00 0.296D+00 0.704D+00
 Coeff:     -0.307D-01 0.873D-01 0.430D+00 0.513D+00
 Gap=     0.279 Goal=   None    Shift=    0.000
 RMSDP=1.78D-04 MaxDP=4.37D-03 DE=-7.98D-04 OVMax= 1.01D-02

 Cycle   5  Pass 0  IDiag  1:
 RMSU=  7.62D-05    CP:  9.63D-01  1.24D+00  8.96D-01  4.21D-01
 E= -463.098393004244     Delta-E=       -0.000654602596 Rises=F Damp=F
 DIIS: error= 6.73D-04 at cycle   5 NSaved=   5.
 NSaved= 5 IEnMin= 5 EnMin= -463.098393004244     IErMin= 5 ErrMin= 6.73D-04
 ErrMax= 6.73D-04  0.00D+00 EMaxC= 1.00D-01 BMatC= 4.47D-05 BMatP= 6.36D-04
 IDIUse=3 WtCom= 9.93D-01 WtEn= 6.73D-03
 Coeff-Com: -0.460D-02 0.953D-02 0.875D-01 0.243D+00 0.665D+00
 Coeff-En:   0.000D+00 0.000D+00 0.000D+00 0.104D-01 0.990D+00
 Coeff:     -0.457D-02 0.947D-02 0.869D-01 0.241D+00 0.667D+00
 Gap=     0.280 Goal=   None    Shift=    0.000
 RMSDP=4.19D-05 MaxDP=7.42D-04 DE=-6.55D-04 OVMax= 2.37D-03

 Cycle   6  Pass 0  IDiag  1:
 RMSU=  1.10D-05    CP:  9.63D-01  1.24D+00  9.07D-01  5.35D-01  7.03D-01
 E= -463.098443405821     Delta-E=       -0.000050401577 Rises=F Damp=F
 DIIS: error= 3.14D-05 at cycle   6 NSaved=   6.
 NSaved= 6 IEnMin= 6 EnMin= -463.098443405821     IErMin= 6 ErrMin= 3.14D-05
 ErrMax= 3.14D-05  0.00D+00 EMaxC= 1.00D-01 BMatC= 2.41D-07 BMatP= 4.47D-05
 IDIUse=1 WtCom= 1.00D+00 WtEn= 0.00D+00
 Coeff-Com:  0.396D-03-0.122D-02-0.272D-02 0.823D-02 0.690D-01 0.926D+00
 Coeff:      0.396D-03-0.122D-02-0.272D-02 0.823D-02 0.690D-01 0.926D+00
 Gap=     0.280 Goal=   None    Shift=    0.000
 RMSDP=4.54D-06 MaxDP=8.40D-05 DE=-5.04D-05 OVMax= 1.87D-04

 Initial convergence to 1.0D-05 achieved.  Increase integral accuracy.
 Cycle   7  Pass 1  IDiag  1:
 E= -463.098442192674     Delta-E=        0.000001213146 Rises=F Damp=F
 DIIS: error= 7.64D-05 at cycle   1 NSaved=   1.
 NSaved= 1 IEnMin= 1 EnMin= -463.098442192674     IErMin= 1 ErrMin= 7.64D-05
 ErrMax= 7.64D-05  0.00D+00 EMaxC= 1.00D-01 BMatC= 2.89D-07 BMatP= 2.89D-07
 IDIUse=1 WtCom= 1.00D+00 WtEn= 0.00D+00
 Coeff-Com:  0.100D+01
 Coeff:      0.100D+01
 Gap=     0.280 Goal=   None    Shift=    0.000
 RMSDP=4.54D-06 MaxDP=8.40D-05 DE= 1.21D-06 OVMax= 1.48D-04

 Cycle   8  Pass 1  IDiag  1:
 RMSU=  3.20D-05    CP:  1.00D+00
 E= -463.098442336384     Delta-E=       -0.000000143709 Rises=F Damp=F
 DIIS: error= 2.81D-05 at cycle   2 NSaved=   2.
 NSaved= 2 IEnMin= 2 EnMin= -463.098442336384     IErMin= 2 ErrMin= 2.81D-05
 ErrMax= 2.81D-05  0.00D+00 EMaxC= 1.00D-01 BMatC= 1.39D-07 BMatP= 2.89D-07
 IDIUse=1 WtCom= 1.00D+00 WtEn= 0.00D+00
 Coeff-Com:  0.388D+00 0.612D+00
 Coeff:      0.388D+00 0.612D+00
 Gap=     0.280 Goal=   None    Shift=    0.000
 RMSDP=2.26D-06 MaxDP=5.28D-05 DE=-1.44D-07 OVMax= 9.43D-05

 Cycle   9  Pass 1  IDiag  1:
 RMSU=  2.21D-06    CP:  1.00D+00  1.01D+00
 E= -463.098442459471     Delta-E=       -0.000000123088 Rises=F Damp=F
 DIIS: error= 8.44D-06 at cycle   3 NSaved=   3.
 NSaved= 3 IEnMin= 3 EnMin= -463.098442459471     IErMin= 3 ErrMin= 8.44D-06
 ErrMax= 8.44D-06  0.00D+00 EMaxC= 1.00D-01 BMatC= 1.30D-08 BMatP= 1.39D-07
 IDIUse=1 WtCom= 1.00D+00 WtEn= 0.00D+00
 Coeff-Com: -0.181D-01 0.223D+00 0.795D+00
 Coeff:     -0.181D-01 0.223D+00 0.795D+00
 Gap=     0.280 Goal=   None    Shift=    0.000
 RMSDP=6.65D-07 MaxDP=1.16D-05 DE=-1.23D-07 OVMax= 2.45D-05

 Cycle  10  Pass 1  IDiag  1:
 RMSU=  2.95D-07    CP:  1.00D+00  1.03D+00  8.27D-01
 E= -463.098442471967     Delta-E=       -0.000000012496 Rises=F Damp=F
 DIIS: error= 1.24D-06 at cycle   4 NSaved=   4.
 NSaved= 4 IEnMin= 4 EnMin= -463.098442471967     IErMin= 4 ErrMin= 1.24D-06
 ErrMax= 1.24D-06  0.00D+00 EMaxC= 1.00D-01 BMatC= 2.00D-10 BMatP= 1.30D-08
 IDIUse=1 WtCom= 1.00D+00 WtEn= 0.00D+00
 Coeff-Com: -0.109D-01 0.792D-01 0.296D+00 0.636D+00
 Coeff:     -0.109D-01 0.792D-01 0.296D+00 0.636D+00
 Gap=     0.280 Goal=   None    Shift=    0.000
 RMSDP=1.22D-07 MaxDP=2.34D-06 DE=-1.25D-08 OVMax= 7.95D-06

 Cycle  11  Pass 1  IDiag  1:
 RMSU=  1.16D-07    CP:  1.00D+00  1.03D+00  8.27D-01  8.76D-01
 E= -463.098442472148     Delta-E=       -0.000000000181 Rises=F Damp=F
 DIIS: error= 8.60D-07 at cycle   5 NSaved=   5.
 NSaved= 5 IEnMin= 5 EnMin= -463.098442472148     IErMin= 5 ErrMin= 8.60D-07
 ErrMax= 8.60D-07  0.00D+00 EMaxC= 1.00D-01 BMatC= 4.72D-11 BMatP= 2.00D-10
 IDIUse=1 WtCom= 1.00D+00 WtEn= 0.00D+00
 Coeff-Com: -0.205D-02 0.942D-03 0.560D-02 0.312D+00 0.683D+00
 Coeff:     -0.205D-02 0.942D-03 0.560D-02 0.312D+00 0.683D+00
 Gap=     0.280 Goal=   None    Shift=    0.000
 RMSDP=5.21D-08 MaxDP=1.31D-06 DE=-1.81D-10 OVMax= 4.47D-06

 Cycle  12  Pass 1  IDiag  1:
 RMSU=  3.20D-08    CP:  1.00D+00  1.03D+00  8.26D-01  9.93D-01  8.06D-01
 E= -463.098442472203     Delta-E=       -0.000000000055 Rises=F Damp=F
 DIIS: error= 2.24D-07 at cycle   6 NSaved=   6.
 NSaved= 6 IEnMin= 6 EnMin= -463.098442472203     IErMin= 6 ErrMin= 2.24D-07
 ErrMax= 2.24D-07  0.00D+00 EMaxC= 1.00D-01 BMatC= 6.88D-12 BMatP= 4.72D-11
 IDIUse=1 WtCom= 1.00D+00 WtEn= 0.00D+00
 Coeff-Com:  0.451D-03-0.966D-02-0.365D-01 0.674D-01 0.343D+00 0.635D+00
 Coeff:      0.451D-03-0.966D-02-0.365D-01 0.674D-01 0.343D+00 0.635D+00
 Gap=     0.280 Goal=   None    Shift=    0.000
 RMSDP=1.69D-08 MaxDP=2.98D-07 DE=-5.55D-11 OVMax= 9.76D-07

 Cycle  13  Pass 1  IDiag  1:
 RMSU=  1.07D-08    CP:  1.00D+00  1.03D+00  8.27D-01  1.01D+00  9.02D-01
                    CP:  8.22D-01
 E= -463.098442472209     Delta-E=       -0.000000000006 Rises=F Damp=F
 DIIS: error= 3.24D-08 at cycle   7 NSaved=   7.
 NSaved= 7 IEnMin= 7 EnMin= -463.098442472209     IErMin= 7 ErrMin= 3.24D-08
 ErrMax= 3.24D-08  0.00D+00 EMaxC= 1.00D-01 BMatC= 2.14D-13 BMatP= 6.88D-12
 IDIUse=1 WtCom= 1.00D+00 WtEn= 0.00D+00
 Coeff-Com:  0.316D-03-0.334D-02-0.131D-01-0.542D-02 0.621D-01 0.199D+00
 Coeff-Com:  0.760D+00
 Coeff:      0.316D-03-0.334D-02-0.131D-01-0.542D-02 0.621D-01 0.199D+00
 Coeff:      0.760D+00
 Gap=     0.280 Goal=   None    Shift=    0.000
 RMSDP=3.43D-09 MaxDP=6.68D-08 DE=-5.91D-12 OVMax= 2.19D-07

 SCF Done:  E(RM062X) =  -463.098442472     A.U. after   13 cycles
            NFock= 13  Conv=0.34D-08     -V/T= 2.0089
 KE= 4.590215326693D+02 PE=-2.272955257719D+03 EE= 7.503428783167D+02
 Leave Link  502 at Fri Aug 18 10:28:02 2023, MaxMem=  4026531840 cpu:             185.0 elap:               9.3
 (Enter /home/software/GAUSSIAN/g16_new_pgi/l601.exe)
 Copying SCF densities to generalized density rwf, IOpCl= 0 IROHF=0.

 **********************************************************************

            Population analysis using the SCF density.

 **********************************************************************

 Orbital symmetries:
       Occupied  (A) (A) (A) (A) (A) (A) (A) (A) (A) (A) (A) (A)
                 (A) (A) (A) (A) (A) (A) (A) (A) (A) (A) (A) (A)
                 (A) (A) (A) (A) (A) (A) (A) (A) (A) (A) (A) (A)
                 (A) (A) (A) (A) (A)
       Virtual   (A) (A) (A) (A) (A) (A) (A) (A) (A) (A) (A) (A)
                 (A) (A) (A) (A) (A) (A) (A) (A) (A) (A) (A) (A)
                 (A) (A) (A) (A) (A) (A) (A) (A) (A) (A) (A) (A)
                 (A) (A) (A) (A) (A) (A) (A) (A) (A) (A) (A) (A)
                 (A) (A) (A) (A) (A) (A) (A) (A) (A) (A) (A) (A)
                 (A) (A) (A) (A) (A) (A) (A) (A) (A) (A) (A) (A)
                 (A) (A) (A) (A) (A) (A) (A) (A) (A) (A) (A) (A)
                 (A) (A) (A) (A) (A) (A) (A) (A) (A) (A) (A) (A)
                 (A) (A) (A) (A) (A) (A) (A) (A) (A) (A) (A) (A)
                 (A) (A) (A) (A) (A) (A) (A) (A) (A) (A) (A) (A)
                 (A) (A) (A) (A) (A) (A) (A) (A) (A) (A) (A) (A)
                 (A) (A) (A) (A) (A) (A) (A) (A) (A) (A) (A) (A)
                 (A) (A) (A) (A) (A) (A) (A) (A) (A) (A) (A) (A)
                 (A) (A) (A)
 The electronic state is 1-A.
 Alpha  occ. eigenvalues --  -10.55801 -10.55757 -10.54984 -10.54984 -10.54962
 Alpha  occ. eigenvalues --  -10.54962 -10.54873 -10.54873 -10.54856 -10.54856
 Alpha  occ. eigenvalues --  -10.54835 -10.54835  -0.97079  -0.94659  -0.87151
 Alpha  occ. eigenvalues --   -0.84301  -0.83474  -0.80997  -0.70395  -0.69876
 Alpha  occ. eigenvalues --   -0.66900  -0.65325  -0.60486  -0.56910  -0.53987
 Alpha  occ. eigenvalues --   -0.52548  -0.50697  -0.49672  -0.48792  -0.48141
 Alpha  occ. eigenvalues --   -0.47976  -0.44260  -0.42368  -0.42208  -0.40679
 Alpha  occ. eigenvalues --   -0.38854  -0.38820  -0.32716  -0.30196  -0.30179
 Alpha  occ. eigenvalues --   -0.27153
 Alpha virt. eigenvalues --    0.00809   0.03388   0.03784   0.07045   0.14176
 Alpha virt. eigenvalues --    0.14366   0.17491   0.19271   0.19784   0.21128
 Alpha virt. eigenvalues --    0.21586   0.22176   0.23148   0.23591   0.24611
 Alpha virt. eigenvalues --    0.26468   0.30316   0.31952   0.33855   0.35572
 Alpha virt. eigenvalues --    0.35759   0.35929   0.38920   0.41683   0.43149
 Alpha virt. eigenvalues --    0.48438   0.54384   0.57971   0.58874   0.58932
 Alpha virt. eigenvalues --    0.59511   0.59516   0.60723   0.61231   0.62211
 Alpha virt. eigenvalues --    0.63750   0.64957   0.65051   0.65837   0.66522
 Alpha virt. eigenvalues --    0.66557   0.66805   0.66879   0.67214   0.69085
 Alpha virt. eigenvalues --    0.69189   0.70436   0.72817   0.73382   0.74072
 Alpha virt. eigenvalues --    0.78160   0.81870   0.84174   0.88310   0.88941
 Alpha virt. eigenvalues --    0.90351   0.91071   0.91148   0.91498   0.92264
 Alpha virt. eigenvalues --    0.92379   0.96500   0.98210   0.98634   0.99113
 Alpha virt. eigenvalues --    1.00945   1.02253   1.02630   1.03920   1.05791
 Alpha virt. eigenvalues --    1.08134   1.11832   1.13754   1.15940   1.16088
 Alpha virt. eigenvalues --    1.19943   1.21376   1.23062   1.25490   1.26493
 Alpha virt. eigenvalues --    1.30765   1.34105   1.37481   1.45362   1.46132
 Alpha virt. eigenvalues --    1.47175   1.49976   1.50405   1.51770   1.54673
 Alpha virt. eigenvalues --    1.55102   1.55200   1.55304   1.56882   1.57251
 Alpha virt. eigenvalues --    1.68401   1.76113   1.82379   1.82925   1.87107
 Alpha virt. eigenvalues --    1.88317   1.88342   1.92940   1.93372   1.97654
 Alpha virt. eigenvalues --    1.99270   2.03457   2.04850   2.07083   2.10663
 Alpha virt. eigenvalues --    2.10913   2.11800   2.16336   2.16506   2.17833
 Alpha virt. eigenvalues --    2.19781   2.19837   2.21083   2.25115   2.26629
 Alpha virt. eigenvalues --    2.32928   2.33684   2.34517   2.34535   2.34556
 Alpha virt. eigenvalues --    2.38059   2.45468   2.54062   2.60674   2.60728
 Alpha virt. eigenvalues --    2.62410   2.65675   2.67804   2.69376   2.71324
 Alpha virt. eigenvalues --    2.75576   2.76527   2.77387   2.78281   2.79066
 Alpha virt. eigenvalues --    2.80773   2.86311   2.99956   3.00658   3.20763
 Alpha virt. eigenvalues --    3.38600   3.48006   4.12012   4.12454   4.14937
 Alpha virt. eigenvalues --    4.15041   4.15376   4.18610   4.33556   4.36014
 Alpha virt. eigenvalues --    4.37266   4.44639   4.66981   4.79093
          Condensed to atoms (all electrons):
               1          2          3          4          5          6
     1  C    4.877501   0.530218  -0.022597  -0.043869  -0.032756   0.559572
     2  C    0.530218   4.969937   0.547576  -0.057733  -0.043869  -0.043795
     3  C   -0.022597   0.547576   4.762084   0.547493  -0.022596  -0.033685
     4  C   -0.043869  -0.057733   0.547493   4.969878   0.530314  -0.043796
     5  C   -0.032756  -0.043869  -0.022596   0.530314   4.877534   0.559464
     6  C    0.559572  -0.043795  -0.033685  -0.043796   0.559464   4.863821
     7  C    0.000356  -0.011536  -0.050316   0.005696  -0.000168  -0.000000
     8  C   -0.000003   0.000356   0.006066  -0.000168   0.000002  -0.000000
     9  C   -0.000000  -0.000000   0.000650  -0.000000  -0.000000   0.000000
    10  C    0.000002  -0.000168   0.006066   0.000356  -0.000003  -0.000000
    11  C   -0.000168   0.005696  -0.050312  -0.011531   0.000356  -0.000000
    12  C    0.006066  -0.050316   0.348524  -0.050312   0.006066   0.000650
    13  H    0.366969  -0.035351   0.003089   0.000753   0.004026  -0.039328
    14  H   -0.038781   0.362177  -0.041119   0.005459   0.000268   0.004202
    15  H    0.004026   0.000753   0.003088  -0.035345   0.366970  -0.039329
    16  H   -0.039230   0.004209   0.000591   0.004210  -0.039235   0.368890
    17  H    0.000024   0.005191  -0.008480   0.000017  -0.000010  -0.000008
    18  H   -0.000000  -0.000002  -0.000168   0.000001  -0.000000  -0.000000
    19  H    0.000000  -0.000000   0.000005  -0.000000   0.000000   0.000000
    20  H   -0.000000   0.000001  -0.000168  -0.000002  -0.000000  -0.000000
    21  H    0.000268   0.005459  -0.041119   0.362173  -0.038782   0.004202
    22  H   -0.000010   0.000017  -0.008479   0.005189   0.000024  -0.000008
               7          8          9         10         11         12
     1  C    0.000356  -0.000003  -0.000000   0.000002  -0.000168   0.006066
     2  C   -0.011536   0.000356  -0.000000  -0.000168   0.005696  -0.050316
     3  C   -0.050316   0.006066   0.000650   0.006066  -0.050312   0.348524
     4  C    0.005696  -0.000168  -0.000000   0.000356  -0.011531  -0.050312
     5  C   -0.000168   0.000002  -0.000000  -0.000003   0.000356   0.006066
     6  C   -0.000000  -0.000000   0.000000  -0.000000  -0.000000   0.000650
     7  C    4.969936   0.530219  -0.043795  -0.043869  -0.057732   0.547576
     8  C    0.530219   4.877501   0.559571  -0.032756  -0.043869  -0.022597
     9  C   -0.043795   0.559571   4.863821   0.559465  -0.043796  -0.033685
    10  C   -0.043869  -0.032756   0.559465   4.877534   0.530313  -0.022596
    11  C   -0.057732  -0.043869  -0.043796   0.530313   4.969878   0.547493
    12  C    0.547576  -0.022597  -0.033685  -0.022596   0.547493   4.762084
    13  H   -0.000002  -0.000000  -0.000000  -0.000000   0.000001  -0.000168
    14  H    0.005190   0.000024  -0.000008  -0.000010   0.000017  -0.008480
    15  H    0.000001  -0.000000  -0.000000  -0.000000  -0.000002  -0.000168
    16  H   -0.000000   0.000000   0.000000   0.000000  -0.000000   0.000005
    17  H    0.362177  -0.038781   0.004202   0.000268   0.005459  -0.041119
    18  H   -0.035351   0.366969  -0.039328   0.004026   0.000753   0.003089
    19  H    0.004209  -0.039230   0.368890  -0.039235   0.004210   0.000591
    20  H    0.000753   0.004026  -0.039329   0.366970  -0.035345   0.003088
    21  H    0.000017  -0.000010  -0.000008   0.000024   0.005189  -0.008479
    22  H    0.005459   0.000268   0.004202  -0.038782   0.362173  -0.041119
              13         14         15         16         17         18
     1  C    0.366969  -0.038781   0.004026  -0.039230   0.000024  -0.000000
     2  C   -0.035351   0.362177   0.000753   0.004209   0.005191  -0.000002
     3  C    0.003089  -0.041119   0.003088   0.000591  -0.008480  -0.000168
     4  C    0.000753   0.005459  -0.035345   0.004210   0.000017   0.000001
     5  C    0.004026   0.000268   0.366970  -0.039235  -0.000010  -0.000000
     6  C   -0.039328   0.004202  -0.039329   0.368890  -0.000008  -0.000000
     7  C   -0.000002   0.005190   0.000001  -0.000000   0.362177  -0.035351
     8  C   -0.000000   0.000024  -0.000000   0.000000  -0.038781   0.366969
     9  C   -0.000000  -0.000008  -0.000000   0.000000   0.004202  -0.039328
    10  C   -0.000000  -0.000010  -0.000000   0.000000   0.000268   0.004026
    11  C    0.000001   0.000017  -0.000002  -0.000000   0.005459   0.000753
    12  C   -0.000168  -0.008480  -0.000168   0.000005  -0.041119   0.003089
    13  H    0.545098  -0.004562  -0.000158  -0.004534   0.000006   0.000000
    14  H   -0.004562   0.549859   0.000016  -0.000151   0.001895   0.000006
    15  H   -0.000158   0.000016   0.545090  -0.004534   0.000000   0.000000
    16  H   -0.004534  -0.000151  -0.004534   0.546655  -0.000000  -0.000000
    17  H    0.000006   0.001895   0.000000  -0.000000   0.549859  -0.004562
    18  H    0.000000   0.000006   0.000000  -0.000000  -0.004562   0.545098
    19  H   -0.000000  -0.000000  -0.000000  -0.000000  -0.000151  -0.004534
    20  H    0.000000   0.000000   0.000000  -0.000000   0.000016  -0.000158
    21  H    0.000016  -0.000148  -0.004562  -0.000152   0.000003   0.000000
    22  H    0.000000   0.000003   0.000006  -0.000000  -0.000148   0.000016
              19         20         21         22
     1  C    0.000000  -0.000000   0.000268  -0.000010
     2  C   -0.000000   0.000001   0.005459   0.000017
     3  C    0.000005  -0.000168  -0.041119  -0.008479
     4  C   -0.000000  -0.000002   0.362173   0.005189
     5  C    0.000000  -0.000000  -0.038782   0.000024
     6  C    0.000000  -0.000000   0.004202  -0.000008
     7  C    0.004209   0.000753   0.000017   0.005459
     8  C   -0.039230   0.004026  -0.000010   0.000268
     9  C    0.368890  -0.039329  -0.000008   0.004202
    10  C   -0.039235   0.366970   0.000024  -0.038782
    11  C    0.004210  -0.035345   0.005189   0.362173
    12  C    0.000591   0.003088  -0.008479  -0.041119
    13  H   -0.000000   0.000000   0.000016   0.000000
    14  H   -0.000000   0.000000  -0.000148   0.000003
    15  H   -0.000000   0.000000  -0.004562   0.000006
    16  H   -0.000000  -0.000000  -0.000152  -0.000000
    17  H   -0.000151   0.000016   0.000003  -0.000148
    18  H   -0.004534  -0.000158   0.000000   0.000016
    19  H    0.546655  -0.004534  -0.000000  -0.000152
    20  H   -0.004534   0.545090   0.000006  -0.004562
    21  H   -0.000000   0.000006   0.549866   0.001895
    22  H   -0.000152  -0.004562   0.001895   0.549866
 Mulliken charges:
               1
     1  C   -0.167588
     2  C   -0.188821
     3  C    0.053807
     4  C   -0.188785
     5  C   -0.167604
     6  C   -0.160855
     7  C   -0.188820
     8  C   -0.167588
     9  C   -0.160855
    10  C   -0.167604
    11  C   -0.188785
    12  C    0.053807
    13  H    0.164143
    14  H    0.164142
    15  H    0.164146
    16  H    0.163276
    17  H    0.164142
    18  H    0.164143
    19  H    0.163276
    20  H    0.164146
    21  H    0.164140
    22  H    0.164140
 Sum of Mulliken charges =  -0.00000
 Mulliken charges with hydrogens summed into heavy atoms:
               1
     1  C   -0.003446
     2  C   -0.024679
     3  C    0.053807
     4  C   -0.024645
     5  C   -0.003458
     6  C    0.002421
     7  C   -0.024679
     8  C   -0.003446
     9  C    0.002421
    10  C   -0.003458
    11  C   -0.024645
    12  C    0.053807
 Electronic spatial extent (au):  <R**2>=           2296.4801
 Charge=             -0.0000 electrons
 Dipole moment (field-independent basis, Debye):
    X=              0.0000    Y=              0.0000    Z=              0.0000  Tot=              0.0000
 Quadrupole moment (field-independent basis, Debye-Ang):
   XX=            -60.4110   YY=            -62.5056   ZZ=            -74.0723
   XY=             -0.0000   XZ=             -0.0001   YZ=             -0.0000
 Traceless Quadrupole moment (field-independent basis, Debye-Ang):
   XX=              5.2519   YY=              3.1574   ZZ=             -8.4093
   XY=             -0.0000   XZ=             -0.0001   YZ=             -0.0000
 Octapole moment (field-independent basis, Debye-Ang**2):
  XXX=             -0.0000  YYY=             -0.0027  ZZZ=             -0.0000  XYY=              0.0000
  XXY=              0.0068  XXZ=              0.0001  XZZ=              0.0000  YZZ=             -0.0002
  YYZ=             -0.0000  XYZ=            -10.9830
 Hexadecapole moment (field-independent basis, Debye-Ang**3):
 XXXX=          -2253.4444 YYYY=           -491.5783 ZZZZ=           -140.6534 XXXY=             -0.0003
 XXXZ=             -0.0074 YYYX=              0.0001 YYYZ=             -0.0000 ZZZX=              0.0003
 ZZZY=             -0.0000 XXYY=           -466.1743 XXZZ=           -479.6468 YYZZ=           -108.6957
 XXYZ=             -0.0000 YYXZ=              0.0015 ZZXY=             -0.0000
 N-N= 6.004924042605D+02 E-N=-2.272955258240D+03  KE= 4.590215326693D+02
 No NMR shielding tensors so no spin-rotation constants.
 Leave Link  601 at Fri Aug 18 10:28:03 2023, MaxMem=  4026531840 cpu:               2.2 elap:               0.2
 (Enter /home/software/GAUSSIAN/g16_new_pgi/l701.exe)
 ... and contract with generalized density number  0.
 Compute integral first derivatives.
 Leave Link  701 at Fri Aug 18 10:28:03 2023, MaxMem=  4026531840 cpu:               3.3 elap:               0.2
 (Enter /home/software/GAUSSIAN/g16_new_pgi/l702.exe)
 L702 exits ... SP integral derivatives will be done elsewhere.
 Leave Link  702 at Fri Aug 18 10:28:03 2023, MaxMem=  4026531840 cpu:               0.9 elap:               0.1
 (Enter /home/software/GAUSSIAN/g16_new_pgi/l703.exe)
 Integral derivatives from FoFJK, PRISM(SPDF).
 Compute integral first derivatives, UseDBF=F ICtDFT=           0.
 Calling FoFJK, ICntrl=      2127 FMM=F ISym2X=0 I1Cent= 0 IOpClX= 0 NMat=1 NMatS=1 NMatT=0.
 FoFJK:  IHMeth= 1 ICntrl=    2127 DoSepK=F KAlg= 0 I1Cent=           0 FoldK=F
 IRaf=         0 NMat=       1 IRICut=       1 DoRegI=T DoRafI=F ISym2E= 0 IDoP0=0 IntGTp=1.
 FoFCou: FMM=F IPFlag=           0 FMFlag=      100000 FMFlg1=         800
         NFxFlg=           0 DoJE=F BraDBF=F KetDBF=F FulRan=T
         wScrn=  0.000000 ICntrl=      2127 IOpCl=  0 I1Cent=           0 NGrid=           0
         NMat0=    1 NMatS0=      1 NMatT0=    0 NMatD0=    1 NMtDS0=    0 NMtDT0=    0
 Symmetry not used in FoFCou.
 Leave Link  703 at Fri Aug 18 10:28:05 2023, MaxMem=  4026531840 cpu:              40.1 elap:               2.0
 (Enter /home/software/GAUSSIAN/g16_new_pgi/l716.exe)
 Dipole        = 7.49312865D-08 4.19022874D-06 2.53481824D-07
 ***** Axes restored to original set *****
 -------------------------------------------------------------------
 Center     Atomic                   Forces (Hartrees/Bohr)
 Number     Number              X              Y              Z
 -------------------------------------------------------------------
      1        6          -0.000037459   -0.000000264    0.000045561
      2        6          -0.000046437    0.000005760   -0.000050146
      3        6           0.000027537   -0.000004366   -0.000021608
      4        6           0.000045256   -0.000000641    0.000044175
      5        6          -0.000044954   -0.000003207   -0.000050052
      6        6           0.000071648   -0.000000257    0.000004448
      7        6          -0.000039520    0.000024197    0.000049259
      8        6          -0.000028394    0.000023315   -0.000044919
      9        6           0.000055201   -0.000044249   -0.000004356
     10        6          -0.000032544    0.000030377    0.000049335
     11        6           0.000035898   -0.000028126   -0.000043043
     12        6           0.000023080   -0.000012880    0.000021616
     13        1           0.000006689   -0.000001573   -0.000012508
     14        1           0.000010902   -0.000002858    0.000000744
     15        1           0.000003015    0.000002877   -0.000000164
     16        1          -0.000011170    0.000000663   -0.000004103
     17        1           0.000010208   -0.000004522   -0.000000702
     18        1           0.000006096   -0.000002920    0.000012365
     19        1          -0.000008961    0.000006432    0.000004092
     20        1           0.000000462   -0.000004097    0.000000319
     21        1          -0.000026404   -0.000000545   -0.000010263
     22        1          -0.000020150    0.000016885    0.000009951
 -------------------------------------------------------------------
 Cartesian Forces:  Max     0.000071648 RMS     0.000027013
 Leave Link  716 at Fri Aug 18 10:28:06 2023, MaxMem=  4026531840 cpu:               0.7 elap:               0.1
 (Enter /home/software/GAUSSIAN/g16_new_pgi/l103.exe)

 GradGradGradGradGradGradGradGradGradGradGradGradGradGradGradGradGradGrad
 Berny optimization.
 FormGI is forming the generalized inverse of G from B-inverse, IUseBI=4.
 GSVD:  received Info=                   1 from GESDD.
 Internal  Forces:  Max     0.000053918 RMS     0.000013200
 Search for a local minimum.
 Step number   1 out of a maximum of  132 on scan point     1 out of    19
 All quantities printed in internal units (Hartrees-Bohrs-Radians)
 RMS Force = .13256D-04 SwitMx=.10000D-02 MixMth= 2
 Mixed Optimization -- En-DIIS/RFO-DIIS
 Second derivative matrix not updated -- first step.
 ITU=  0
     Eigenvalues ---    0.01449   0.01747   0.02107   0.02107   0.02146
     Eigenvalues ---    0.02146   0.02157   0.02157   0.02181   0.02181
     Eigenvalues ---    0.02186   0.02186   0.02193   0.02193   0.02198
     Eigenvalues ---    0.02198   0.02200   0.02200   0.15994   0.15994
     Eigenvalues ---    0.15995   0.15995   0.15999   0.15999   0.15999
     Eigenvalues ---    0.15999   0.16000   0.16000   0.22000   0.22000
     Eigenvalues ---    0.22000   0.22000   0.23473   0.23473   0.25000
     Eigenvalues ---    0.25000   0.34111   0.35223   0.35223   0.35226
     Eigenvalues ---    0.35226   0.35305   0.35305   0.35306   0.35306
     Eigenvalues ---    0.35335   0.35335   0.42143   0.42143   0.42311
     Eigenvalues ---    0.42311   0.45986   0.45986   0.46336   0.46336
     Eigenvalues ---    0.46929   0.46929   0.47165   0.471651000.00000
     Eigenvalues --- 1000.000001000.000001000.000001000.000001000.00000
     Eigenvalues --- 1000.000001000.000001000.000001000.000001000.00000
     Eigenvalues --- 1000.000001000.000001000.000001000.000001000.00000
     Eigenvalues --- 1000.000001000.000001000.000001000.000001000.00000
     Eigenvalues --- 1000.000001000.000001000.000001000.000001000.00000
     Eigenvalues --- 1000.000001000.000001000.000001000.000001000.00000
     Eigenvalues --- 1000.000001000.000001000.000001000.000001000.00000
     Eigenvalues --- 1000.000001000.000001000.000001000.000001000.00000
     Eigenvalues --- 1000.000001000.000001000.000001000.000001000.00000
     Eigenvalues --- 1000.000001000.000001000.000001000.000001000.00000
     Eigenvalues --- 1000.00000
 RFO step:  Lambda=-5.55225889D-08 EMin= 1.44865932D-02
 Linear search not attempted -- first point.
 Iteration  1 RMS(Cart)=  0.00011338 RMS(Int)=  0.00000000
 Iteration  2 RMS(Cart)=  0.00000001 RMS(Int)=  0.00000000
 Iteration  1 RMS(Cart)=  0.00000000 RMS(Int)=  0.00000000
 ITry= 1 IFail=0 DXMaxC= 4.02D-04 DCOld= 1.00D+10 DXMaxT= 3.00D-01 DXLimC= 3.00D+00 Rises=F
 Variable       Old X    -DE/DX   Delta X   Delta X   Delta X     New X
                                 (Linear)    (Quad)   (Total)
    R1        2.62850  -0.00002   0.00000  -0.00004  -0.00004   2.62846
    R2        2.63159   0.00003   0.00000   0.00006   0.00006   2.63166
    R3        2.05182   0.00000   0.00000   0.00000   0.00000   2.05182
    R4        2.64487   0.00005   0.00000   0.00011   0.00011   2.64498
    R5        2.05309  -0.00001   0.00000  -0.00003  -0.00003   2.05307
    R6        2.64504   0.00001   0.00000   0.00002   0.00002   2.64507
    R7        2.80443   0.00005   0.00000   0.00016   0.00016   2.80459
    R8        2.62829   0.00004   0.00000   0.00008   0.00008   2.62836
    R9        2.05315  -0.00003   0.00000  -0.00008  -0.00008   2.05307
   R10        2.63184  -0.00003   0.00000  -0.00008  -0.00008   2.63177
   R11        2.05181   0.00000   0.00000   0.00001   0.00001   2.05182
   R12        2.05134   0.00000   0.00000   0.00001   0.00001   2.05135
   R13        2.62850  -0.00002   0.00000  -0.00004  -0.00004   2.62846
   R14        2.64488   0.00005   0.00000   0.00011   0.00011   2.64498
   R15        2.05309  -0.00001   0.00000  -0.00003  -0.00003   2.05307
   R16        2.63159   0.00003   0.00000   0.00006   0.00006   2.63166
   R17        2.05182   0.00000   0.00000   0.00000   0.00000   2.05182
   R18        2.63184  -0.00003   0.00000  -0.00008  -0.00008   2.63177
   R19        2.05134   0.00000   0.00000   0.00001   0.00001   2.05135
   R20        2.62829   0.00004   0.00000   0.00008   0.00008   2.62836
   R21        2.05181   0.00000   0.00000   0.00001   0.00001   2.05182
   R22        2.64504   0.00001   0.00000   0.00002   0.00002   2.64506
   R23        2.05315  -0.00003   0.00000  -0.00008  -0.00008   2.05307
    A1        2.09773   0.00000   0.00000  -0.00000  -0.00000   2.09773
    A2        2.08925   0.00001   0.00000   0.00009   0.00009   2.08935
    A3        2.09616  -0.00001   0.00000  -0.00009  -0.00009   2.09607
    A4        2.10806  -0.00000   0.00000  -0.00000  -0.00000   2.10806
    A5        2.09226   0.00001   0.00000   0.00004   0.00004   2.09229
    A6        2.08255  -0.00001   0.00000  -0.00004  -0.00004   2.08251
    A7        2.06796  -0.00000   0.00000  -0.00001  -0.00001   2.06795
    A8        2.10760   0.00001   0.00000   0.00003   0.00003   2.10763
    A9        2.10763  -0.00000   0.00000  -0.00002  -0.00002   2.10760
   A10        2.10809  -0.00001   0.00000  -0.00003  -0.00003   2.10806
   A11        2.08247  -0.00000   0.00000  -0.00001  -0.00001   2.08246
   A12        2.09231   0.00001   0.00000   0.00004   0.00004   2.09235
   A13        2.09771   0.00001   0.00000   0.00002   0.00002   2.09773
   A14        2.08944  -0.00000   0.00000  -0.00002  -0.00002   2.08942
   A15        2.09599  -0.00000   0.00000  -0.00000  -0.00000   2.09599
   A16        2.08682   0.00001   0.00000   0.00002   0.00002   2.08684
   A17        2.09830  -0.00001   0.00000  -0.00008  -0.00008   2.09822
   A18        2.09806   0.00001   0.00000   0.00006   0.00006   2.09813
   A19        2.10806  -0.00000   0.00000  -0.00000  -0.00000   2.10806
   A20        2.09226   0.00001   0.00000   0.00004   0.00004   2.09230
   A21        2.08254  -0.00001   0.00000  -0.00004  -0.00004   2.08251
   A22        2.09773   0.00000   0.00000  -0.00000  -0.00000   2.09773
   A23        2.08926   0.00001   0.00000   0.00009   0.00009   2.08935
   A24        2.09616  -0.00001   0.00000  -0.00009  -0.00009   2.09607
   A25        2.08682   0.00001   0.00000   0.00002   0.00002   2.08684
   A26        2.09830  -0.00001   0.00000  -0.00008  -0.00008   2.09822
   A27        2.09807   0.00001   0.00000   0.00006   0.00006   2.09813
   A28        2.09771   0.00001   0.00000   0.00002   0.00002   2.09773
   A29        2.09599  -0.00000   0.00000  -0.00000  -0.00000   2.09599
   A30        2.08944  -0.00000   0.00000  -0.00002  -0.00002   2.08942
   A31        2.10809  -0.00001   0.00000  -0.00003  -0.00003   2.10806
   A32        2.09230   0.00001   0.00000   0.00004   0.00004   2.09235
   A33        2.08247  -0.00000   0.00000  -0.00002  -0.00002   2.08246
   A34        2.10760   0.00001   0.00000   0.00003   0.00003   2.10763
   A35        2.10763  -0.00000   0.00000  -0.00003  -0.00003   2.10760
   A36        2.06796  -0.00000   0.00000  -0.00001  -0.00001   2.06795
    D1        0.00110  -0.00000   0.00000  -0.00005  -0.00005   0.00105
    D2       -3.11313   0.00000   0.00000   0.00005   0.00005  -3.11308
    D3        3.13329  -0.00000   0.00000  -0.00006  -0.00006   3.13323
    D4        0.01906   0.00000   0.00000   0.00005   0.00005   0.01910
    D5       -0.00056   0.00000   0.00000   0.00005   0.00005  -0.00051
    D6        3.14103   0.00000   0.00000   0.00005   0.00005   3.14108
    D7       -3.13271   0.00000   0.00000   0.00006   0.00006  -3.13265
    D8        0.00888   0.00000   0.00000   0.00006   0.00006   0.00893
    D9       -0.00055   0.00000   0.00000  -0.00000  -0.00000  -0.00055
   D10        3.14105   0.00000   0.00000   0.00005   0.00005   3.14110
   D11        3.11383  -0.00000   0.00000  -0.00010  -0.00010   3.11373
   D12       -0.02775  -0.00000   0.00000  -0.00005  -0.00005  -0.02780
   D13       -0.00053   0.00000   0.00000   0.00005   0.00005  -0.00048
   D14        3.11379  -0.00000   0.00000  -0.00000  -0.00000   3.11379
   D15        3.14105   0.00000   0.00000   0.00000   0.00000   3.14105
   D16       -0.02781  -0.00000   0.00000  -0.00005  -0.00005  -0.02787
   D17       -0.67626  -0.00000   0.00000  -0.00010  -0.00010  -0.67636
   D18        2.46535  -0.00000   0.00000  -0.00005  -0.00005   2.46530
   D19        2.46535  -0.00000   0.00000  -0.00005  -0.00005   2.46530
   D20       -0.67623  -0.00000   0.00000   0.00000   0.00000  -0.67623
   D21        0.00107  -0.00000   0.00000  -0.00005  -0.00005   0.00102
   D22        3.13330  -0.00000   0.00000  -0.00010  -0.00010   3.13320
   D23       -3.11310   0.00000   0.00000   0.00000   0.00000  -3.11310
   D24        0.01913  -0.00000   0.00000  -0.00004  -0.00004   0.01909
   D25       -0.00052   0.00000   0.00000   0.00000   0.00000  -0.00052
   D26        3.14108   0.00000   0.00000   0.00000   0.00000   3.14108
   D27       -3.13271   0.00000   0.00000   0.00004   0.00004  -3.13267
   D28        0.00889   0.00000   0.00000   0.00005   0.00005   0.00893
   D29        0.00110  -0.00000   0.00000  -0.00005  -0.00005   0.00105
   D30        3.13329  -0.00000   0.00000  -0.00006  -0.00006   3.13323
   D31       -3.11313   0.00000   0.00000   0.00005   0.00005  -3.11308
   D32        0.01906   0.00000   0.00000   0.00005   0.00005   0.01910
   D33        3.14105   0.00000   0.00000   0.00005   0.00005   3.14110
   D34       -0.00055   0.00000   0.00000   0.00000   0.00000  -0.00055
   D35       -0.02775  -0.00000   0.00000  -0.00005  -0.00005  -0.02780
   D36        3.11383  -0.00000   0.00000  -0.00010  -0.00010   3.11373
   D37       -0.00056   0.00000   0.00000   0.00005   0.00005  -0.00051
   D38        3.14103   0.00000   0.00000   0.00005   0.00005   3.14108
   D39       -3.13271   0.00000   0.00000   0.00006   0.00006  -3.13265
   D40        0.00888   0.00000   0.00000   0.00005   0.00005   0.00893
   D41       -0.00052   0.00000   0.00000   0.00000   0.00000  -0.00052
   D42       -3.13271   0.00000   0.00000   0.00004   0.00004  -3.13267
   D43        3.14108   0.00000   0.00000   0.00000   0.00000   3.14108
   D44        0.00888   0.00000   0.00000   0.00005   0.00005   0.00893
   D45        0.00107  -0.00000   0.00000  -0.00005  -0.00005   0.00102
   D46       -3.11310   0.00000   0.00000   0.00000   0.00000  -3.11310
   D47        3.13330  -0.00000   0.00000  -0.00010  -0.00010   3.13320
   D48        0.01913  -0.00000   0.00000  -0.00004  -0.00004   0.01909
   D49        3.14105   0.00000   0.00000   0.00000   0.00000   3.14105
   D50       -0.00053   0.00000   0.00000   0.00005   0.00005  -0.00048
   D51       -0.02781  -0.00000   0.00000  -0.00005  -0.00005  -0.02787
   D52        3.11379  -0.00000   0.00000  -0.00000  -0.00000   3.11379
         Item               Value     Threshold  Converged?
 Maximum Force            0.000054     0.000450     YES
 RMS     Force            0.000013     0.000300     YES
 Maximum Displacement     0.000402     0.001800     YES
 RMS     Displacement     0.000113     0.001200     YES
 Predicted change in Energy=-2.776127D-08
 Optimization completed.
    -- Stationary point found.
                           ----------------------------
                           !   Optimized Parameters   !
                           ! (Angstroms and Degrees)  !
 --------------------------                            --------------------------
 ! Name  Definition              Value          Derivative Info.                !
 --------------------------------------------------------------------------------
 ! R1    R(1,2)                  1.3909         -DE/DX =    0.0                 !
 ! R2    R(1,6)                  1.3926         -DE/DX =    0.0                 !
 ! R3    R(1,13)                 1.0858         -DE/DX =    0.0                 !
 ! R4    R(2,3)                  1.3996         -DE/DX =    0.0                 !
 ! R5    R(2,14)                 1.0865         -DE/DX =    0.0                 !
 ! R6    R(3,4)                  1.3997         -DE/DX =    0.0                 !
 ! R7    R(3,12)                 1.484          -DE/DX =    0.0001              !
 ! R8    R(4,5)                  1.3908         -DE/DX =    0.0                 !
 ! R9    R(4,21)                 1.0865         -DE/DX =    0.0                 !
 ! R10   R(5,6)                  1.3927         -DE/DX =    0.0                 !
 ! R11   R(5,15)                 1.0858         -DE/DX =    0.0                 !
 ! R12   R(6,16)                 1.0855         -DE/DX =    0.0                 !
 ! R13   R(7,8)                  1.3909         -DE/DX =    0.0                 !
 ! R14   R(7,12)                 1.3996         -DE/DX =    0.0                 !
 ! R15   R(7,17)                 1.0864         -DE/DX =    0.0                 !
 ! R16   R(8,9)                  1.3926         -DE/DX =    0.0                 !
 ! R17   R(8,18)                 1.0858         -DE/DX =    0.0                 !
 ! R18   R(9,10)                 1.3927         -DE/DX =    0.0                 !
 ! R19   R(9,19)                 1.0855         -DE/DX =    0.0                 !
 ! R20   R(10,11)                1.3908         -DE/DX =    0.0                 !
 ! R21   R(10,20)                1.0858         -DE/DX =    0.0                 !
 ! R22   R(11,12)                1.3997         -DE/DX =    0.0                 !
 ! R23   R(11,22)                1.0865         -DE/DX =    0.0                 !
 ! A1    A(2,1,6)              120.1913         -DE/DX =    0.0                 !
 ! A2    A(2,1,13)             119.7054         -DE/DX =    0.0                 !
 ! A3    A(6,1,13)             120.1011         -DE/DX =    0.0                 !
 ! A4    A(1,2,3)              120.7831         -DE/DX =    0.0                 !
 ! A5    A(1,2,14)             119.8775         -DE/DX =    0.0                 !
 ! A6    A(3,2,14)             119.3211         -DE/DX =    0.0                 !
 ! A7    A(2,3,4)              118.4852         -DE/DX =    0.0                 !
 ! A8    A(2,3,12)             120.7567         -DE/DX =    0.0                 !
 ! A9    A(4,3,12)             120.7581         -DE/DX =    0.0                 !
 ! A10   A(3,4,5)              120.7845         -DE/DX =    0.0                 !
 ! A11   A(3,4,21)             119.3169         -DE/DX =    0.0                 !
 ! A12   A(5,4,21)             119.8803         -DE/DX =    0.0                 !
 ! A13   A(4,5,6)              120.1899         -DE/DX =    0.0                 !
 ! A14   A(4,5,15)             119.7163         -DE/DX =    0.0                 !
 ! A15   A(6,5,15)             120.0916         -DE/DX =    0.0                 !
 ! A16   A(1,6,5)              119.5659         -DE/DX =    0.0                 !
 ! A17   A(1,6,16)             120.2239         -DE/DX =    0.0                 !
 ! A18   A(5,6,16)             120.2102         -DE/DX =    0.0                 !
 ! A19   A(8,7,12)             120.7831         -DE/DX =    0.0                 !
 ! A20   A(8,7,17)             119.8776         -DE/DX =    0.0                 !
 ! A21   A(12,7,17)            119.321          -DE/DX =    0.0                 !
 ! A22   A(7,8,9)              120.1913         -DE/DX =    0.0                 !
 ! A23   A(7,8,18)             119.7055         -DE/DX =    0.0                 !
 ! A24   A(9,8,18)             120.101          -DE/DX =    0.0                 !
 ! A25   A(8,9,10)             119.5659         -DE/DX =    0.0                 !
 ! A26   A(8,9,19)             120.2238         -DE/DX =    0.0                 !
 ! A27   A(10,9,19)            120.2103         -DE/DX =    0.0                 !
 ! A28   A(9,10,11)            120.19           -DE/DX =    0.0                 !
 ! A29   A(9,10,20)            120.0917         -DE/DX =    0.0                 !
 ! A30   A(11,10,20)           119.7162         -DE/DX =    0.0                 !
 ! A31   A(10,11,12)           120.7845         -DE/DX =    0.0                 !
 ! A32   A(10,11,22)           119.8802         -DE/DX =    0.0                 !
 ! A33   A(12,11,22)           119.317          -DE/DX =    0.0                 !
 ! A34   A(3,12,7)             120.7566         -DE/DX =    0.0                 !
 ! A35   A(3,12,11)            120.7582         -DE/DX =    0.0                 !
 ! A36   A(7,12,11)            118.4852         -DE/DX =    0.0                 !
 ! D1    D(6,1,2,3)              0.063          -DE/DX =    0.0                 !
 ! D2    D(6,1,2,14)          -178.3692         -DE/DX =    0.0                 !
 ! D3    D(13,1,2,3)           179.5242         -DE/DX =    0.0                 !
 ! D4    D(13,1,2,14)            1.092          -DE/DX =    0.0                 !
 ! D5    D(2,1,6,5)             -0.0319         -DE/DX =    0.0                 !
 ! D6    D(2,1,6,16)           179.9677         -DE/DX =    0.0                 !
 ! D7    D(13,1,6,5)          -179.491          -DE/DX =    0.0                 !
 ! D8    D(13,1,6,16)            0.5087         -DE/DX =    0.0                 !
 ! D9    D(1,2,3,4)             -0.0315         -DE/DX =    0.0                 !
 ! D10   D(1,2,3,12)           179.9691         -DE/DX =    0.0                 !
 ! D11   D(14,2,3,4)           178.4093         -DE/DX =    0.0                 !
 ! D12   D(14,2,3,12)           -1.5901         -DE/DX =    0.0                 !
 ! D13   D(2,3,4,5)             -0.0306         -DE/DX =    0.0                 !
 ! D14   D(2,3,4,21)           178.4071         -DE/DX =    0.0                 !
 ! D15   D(12,3,4,5)           179.9688         -DE/DX =    0.0                 !
 ! D16   D(12,3,4,21)           -1.5935         -DE/DX =    0.0                 !
 ! D17   D(2,3,12,7)           -38.7466         -DE/DX =    0.0                 !
 ! D18   D(2,3,12,11)          141.2542         -DE/DX =    0.0                 !
 ! D19   D(4,3,12,7)           141.2541         -DE/DX =    0.0                 !
 ! D20   D(4,3,12,11)          -38.7452         -DE/DX =    0.0                 !
 ! D21   D(3,4,5,6)              0.0614         -DE/DX =    0.0                 !
 ! D22   D(3,4,5,15)           179.525          -DE/DX =    0.0                 !
 ! D23   D(21,4,5,6)          -178.3675         -DE/DX =    0.0                 !
 ! D24   D(21,4,5,15)            1.0961         -DE/DX =    0.0                 !
 ! D25   D(4,5,6,1)             -0.0297         -DE/DX =    0.0                 !
 ! D26   D(4,5,6,16)           179.9707         -DE/DX =    0.0                 !
 ! D27   D(15,5,6,1)          -179.4913         -DE/DX =    0.0                 !
 ! D28   D(15,5,6,16)            0.5091         -DE/DX =    0.0                 !
 ! D29   D(12,7,8,9)             0.0631         -DE/DX =    0.0                 !
 ! D30   D(12,7,8,18)          179.5242         -DE/DX =    0.0                 !
 ! D31   D(17,7,8,9)          -178.3692         -DE/DX =    0.0                 !
 ! D32   D(17,7,8,18)            1.0919         -DE/DX =    0.0                 !
 ! D33   D(8,7,12,3)           179.9692         -DE/DX =    0.0                 !
 ! D34   D(8,7,12,11)           -0.0316         -DE/DX =    0.0                 !
 ! D35   D(17,7,12,3)           -1.59           -DE/DX =    0.0                 !
 ! D36   D(17,7,12,11)         178.4093         -DE/DX =    0.0                 !
 ! D37   D(7,8,9,10)            -0.032          -DE/DX =    0.0                 !
[...]
 RotChk:  IX=2 Diff= 9.45D-16
 Largest Abelian subgroup         C1      NOp   1
 Largest concise Abelian subgroup C1      NOp   1
                         Standard orientation:                         
 ---------------------------------------------------------------------
 Center     Atomic      Atomic             Coordinates (Angstroms)
 Number     Number       Type             X           Y           Z
 ---------------------------------------------------------------------
      1          6           0       -2.848669   -1.135390   -0.398920
      2          6           0       -1.457821   -1.134561   -0.399233
      3          6           0       -0.742116    0.000103    0.000142
      4          6           0       -1.457927    1.134652    0.399197
      5          6           0       -2.848919    1.135289    0.398866
      6          6           0       -3.549715   -0.000063    0.000050
      7          6           0        1.457753   -1.134549    0.399169
      8          6           0        2.848738   -1.135359    0.398947
      9          6           0        3.549714   -0.000124    0.000049
     10          6           0        2.848849    1.135325   -0.398836
     11          6           0        1.457993    1.134671   -0.399259
     12          6           0        0.742119    0.000020   -0.000147
     13          1           0       -3.386463   -2.022425   -0.719657
     14          1           0       -0.916083   -2.013689   -0.736779
     15          1           0       -3.386648    2.022427    0.719408
     16          1           0       -4.635243   -0.000277    0.000089
     17          1           0        0.916167   -2.013801    0.736628
     18          1           0        3.386340   -2.022502    0.719697
     19          1           0        4.635242   -0.000094   -0.000018
     20          1           0        3.386772    2.022353   -0.719365
     21          1           0       -0.916480    2.014016    0.736593
     22          1           0        0.916398    2.013914   -0.736740
 ---------------------------------------------------------------------
 Rotational constants (GHZ):           2.8704180           0.5495124           0.4782949
 Leave Link  202 at Fri Aug 18 10:44:02 2023, MaxMem=  4026531840 cpu:               0.7 elap:               0.1
 (Enter /home/software/GAUSSIAN/g16_new_pgi/l601.exe)
 Copying SCF densities to generalized density rwf, IOpCl= 0 IROHF=0.

 **********************************************************************

            Population analysis using the SCF density.

 **********************************************************************

 Orbital symmetries:
       Occupied  (A) (A) (A) (A) (A) (A) (A) (A) (A) (A) (A) (A)
                 (A) (A) (A) (A) (A) (A) (A) (A) (A) (A) (A) (A)
                 (A) (A) (A) (A) (A) (A) (A) (A) (A) (A) (A) (A)
                 (A) (A) (A) (A) (A)
       Virtual   (A) (A) (A) (A) (A) (A) (A) (A) (A) (A) (A) (A)
                 (A) (A) (A) (A) (A) (A) (A) (A) (A) (A) (A) (A)
                 (A) (A) (A) (A) (A) (A) (A) (A) (A) (A) (A) (A)
                 (A) (A) (A) (A) (A) (A) (A) (A) (A) (A) (A) (A)
                 (A) (A) (A) (A) (A) (A) (A) (A) (A) (A) (A) (A)
                 (A) (A) (A) (A) (A) (A) (A) (A) (A) (A) (A) (A)
                 (A) (A) (A) (A) (A) (A) (A) (A) (A) (A) (A) (A)
                 (A) (A) (A) (A) (A) (A) (A) (A) (A) (A) (A) (A)
                 (A) (A) (A) (A) (A) (A) (A) (A) (A) (A) (A) (A)
                 (A) (A) (A) (A) (A) (A) (A) (A) (A) (A) (A) (A)
                 (A) (A) (A) (A) (A) (A) (A) (A) (A) (A) (A) (A)
                 (A) (A) (A) (A) (A) (A) (A) (A) (A) (A) (A) (A)
                 (A) (A) (A) (A) (A) (A) (A) (A) (A) (A) (A) (A)
                 (A) (A) (A)
 The electronic state is 1-A.
 Alpha  occ. eigenvalues --  -10.55802 -10.55758 -10.54984 -10.54984 -10.54962
 Alpha  occ. eigenvalues --  -10.54962 -10.54873 -10.54873 -10.54856 -10.54856
 Alpha  occ. eigenvalues --  -10.54835 -10.54835  -0.97078  -0.94659  -0.87150
 Alpha  occ. eigenvalues --   -0.84300  -0.83474  -0.80998  -0.70394  -0.69875
 Alpha  occ. eigenvalues --   -0.66902  -0.65324  -0.60485  -0.56911  -0.53986
 Alpha  occ. eigenvalues --   -0.52547  -0.50698  -0.49673  -0.48791  -0.48141
 Alpha  occ. eigenvalues --   -0.47976  -0.44259  -0.42369  -0.42210  -0.40678
 Alpha  occ. eigenvalues --   -0.38855  -0.38817  -0.32715  -0.30195  -0.30178
 Alpha  occ. eigenvalues --   -0.27155
 Alpha virt. eigenvalues --    0.00811   0.03388   0.03783   0.07044   0.14178
 Alpha virt. eigenvalues --    0.14364   0.17495   0.19271   0.19786   0.21129
 Alpha virt. eigenvalues --    0.21584   0.22176   0.23149   0.23589   0.24610
 Alpha virt. eigenvalues --    0.26463   0.30312   0.31952   0.33855   0.35575
 Alpha virt. eigenvalues --    0.35760   0.35927   0.38914   0.41683   0.43143
 Alpha virt. eigenvalues --    0.48435   0.54382   0.57972   0.58868   0.58931
 Alpha virt. eigenvalues --    0.59509   0.59518   0.60721   0.61235   0.62211
 Alpha virt. eigenvalues --    0.63749   0.64957   0.65052   0.65836   0.66523
 Alpha virt. eigenvalues --    0.66559   0.66805   0.66879   0.67213   0.69084
 Alpha virt. eigenvalues --    0.69188   0.70435   0.72822   0.73381   0.74065
 Alpha virt. eigenvalues --    0.78159   0.81867   0.84175   0.88316   0.88936
 Alpha virt. eigenvalues --    0.90353   0.91071   0.91149   0.91497   0.92257
 Alpha virt. eigenvalues --    0.92381   0.96498   0.98210   0.98635   0.99110
 Alpha virt. eigenvalues --    1.00945   1.02246   1.02627   1.03919   1.05790
 Alpha virt. eigenvalues --    1.08133   1.11838   1.13750   1.15937   1.16087
 Alpha virt. eigenvalues --    1.19939   1.21375   1.23060   1.25492   1.26487
 Alpha virt. eigenvalues --    1.30766   1.34107   1.37469   1.45363   1.46143
 Alpha virt. eigenvalues --    1.47171   1.49974   1.50407   1.51763   1.54667
 Alpha virt. eigenvalues --    1.55102   1.55196   1.55305   1.56885   1.57258
 Alpha virt. eigenvalues --    1.68405   1.76112   1.82371   1.82921   1.87107
 Alpha virt. eigenvalues --    1.88315   1.88338   1.92937   1.93366   1.97654
 Alpha virt. eigenvalues --    1.99269   2.03459   2.04854   2.07086   2.10659
 Alpha virt. eigenvalues --    2.10908   2.11805   2.16338   2.16508   2.17830
 Alpha virt. eigenvalues --    2.19778   2.19835   2.21081   2.25113   2.26630
 Alpha virt. eigenvalues --    2.32931   2.33684   2.34514   2.34533   2.34555
 Alpha virt. eigenvalues --    2.38058   2.45461   2.54064   2.60675   2.60725
 Alpha virt. eigenvalues --    2.62407   2.65672   2.67805   2.69383   2.71323
 Alpha virt. eigenvalues --    2.75569   2.76523   2.77386   2.78282   2.79060
 Alpha virt. eigenvalues --    2.80765   2.86312   2.99950   3.00659   3.20746
 Alpha virt. eigenvalues --    3.38598   3.48002   4.12011   4.12454   4.14936
 Alpha virt. eigenvalues --    4.15040   4.15375   4.18613   4.33558   4.36015
 Alpha virt. eigenvalues --    4.37267   4.44638   4.66983   4.79086
          Condensed to atoms (all electrons):
               1          2          3          4          5          6
     1  C    4.877547   0.530343  -0.022609  -0.043871  -0.032756   0.559463
     2  C    0.530343   4.969796   0.547476  -0.057727  -0.043869  -0.043799
     3  C   -0.022609   0.547476   4.762107   0.547617  -0.022582  -0.033682
     4  C   -0.043871  -0.057727   0.547617   4.969878   0.530205  -0.043799
     5  C   -0.032756  -0.043869  -0.022582   0.530205   4.877519   0.559591
     6  C    0.559463  -0.043799  -0.033682  -0.043799   0.559591   4.863774
     7  C    0.000356  -0.011525  -0.050294   0.005692  -0.000168  -0.000000
     8  C   -0.000003   0.000356   0.006061  -0.000168   0.000002  -0.000000
     9  C   -0.000000  -0.000000   0.000650  -0.000000  -0.000000   0.000000
    10  C    0.000002  -0.000168   0.006064   0.000356  -0.000003  -0.000000
    11  C   -0.000168   0.005690  -0.050314  -0.011515   0.000356  -0.000000
    12  C    0.006063  -0.050285   0.348495  -0.050324   0.006062   0.000650
    13  H    0.366965  -0.035348   0.003089   0.000753   0.004028  -0.039336
    14  H   -0.038776   0.362190  -0.041127   0.005459   0.000268   0.004202
    15  H    0.004028   0.000753   0.003089  -0.035351   0.366968  -0.039332
    16  H   -0.039234   0.004209   0.000590   0.004209  -0.039230   0.368894
    17  H    0.000024   0.005187  -0.008472   0.000017  -0.000010  -0.000008
    18  H   -0.000000  -0.000002  -0.000168   0.000001  -0.000000  -0.000000
    19  H    0.000000  -0.000000   0.000005  -0.000000   0.000000   0.000000
    20  H   -0.000000   0.000001  -0.000168  -0.000002  -0.000000  -0.000000
    21  H    0.000268   0.005458  -0.041110   0.362189  -0.038788   0.004203
    22  H   -0.000010   0.000017  -0.008474   0.005188   0.000024  -0.000008
               7          8          9         10         11         12
     1  C    0.000356  -0.000003  -0.000000   0.000002  -0.000168   0.006063
     2  C   -0.011525   0.000356  -0.000000  -0.000168   0.005690  -0.050285
     3  C   -0.050294   0.006061   0.000650   0.006064  -0.050314   0.348495
     4  C    0.005692  -0.000168  -0.000000   0.000356  -0.011515  -0.050324
     5  C   -0.000168   0.000002  -0.000000  -0.000003   0.000356   0.006062
     6  C   -0.000000  -0.000000   0.000000  -0.000000  -0.000000   0.000650
     7  C    4.969887   0.530230  -0.043800  -0.043871  -0.057728   0.547563
     8  C    0.530230   4.877506   0.559584  -0.032756  -0.043867  -0.022603
     9  C   -0.043800   0.559584   4.863774   0.559470  -0.043800  -0.033682
    10  C   -0.043871  -0.032756   0.559470   4.877561   0.530317  -0.022587
    11  C   -0.057728  -0.043867  -0.043800   0.530317   4.969784   0.547529
    12  C    0.547563  -0.022603  -0.033682  -0.022587   0.547529   4.762110
    13  H   -0.000002  -0.000000  -0.000000  -0.000000   0.000001  -0.000168
    14  H    0.005189   0.000024  -0.000008  -0.000010   0.000017  -0.008473
    15  H    0.000001  -0.000000  -0.000000  -0.000000  -0.000002  -0.000168
    16  H   -0.000000   0.000000   0.000000   0.000000  -0.000000   0.000005
    17  H    0.362193  -0.038778   0.004202   0.000268   0.005458  -0.041124
    18  H   -0.035353   0.366966  -0.039332   0.004028   0.000753   0.003090
    19  H    0.004209  -0.039229   0.368894  -0.039235   0.004209   0.000590
    20  H    0.000753   0.004028  -0.039336   0.366967  -0.035346   0.003088
    21  H    0.000017  -0.000010  -0.000008   0.000024   0.005186  -0.008472
    22  H    0.005459   0.000268   0.004202  -0.038786   0.362187  -0.041113
              13         14         15         16         17         18
     1  C    0.366965  -0.038776   0.004028  -0.039234   0.000024  -0.000000
     2  C   -0.035348   0.362190   0.000753   0.004209   0.005187  -0.000002
     3  C    0.003089  -0.041127   0.003089   0.000590  -0.008472  -0.000168
     4  C    0.000753   0.005459  -0.035351   0.004209   0.000017   0.000001
     5  C    0.004028   0.000268   0.366968  -0.039230  -0.000010  -0.000000
     6  C   -0.039336   0.004202  -0.039332   0.368894  -0.000008  -0.000000
     7  C   -0.000002   0.005189   0.000001  -0.000000   0.362193  -0.035353
     8  C   -0.000000   0.000024  -0.000000   0.000000  -0.038778   0.366966
     9  C   -0.000000  -0.000008  -0.000000   0.000000   0.004202  -0.039332
    10  C   -0.000000  -0.000010  -0.000000   0.000000   0.000268   0.004028
    11  C    0.000001   0.000017  -0.000002  -0.000000   0.005458   0.000753
    12  C   -0.000168  -0.008473  -0.000168   0.000005  -0.041124   0.003090
    13  H    0.545116  -0.004561  -0.000158  -0.004535   0.000006   0.000000
    14  H   -0.004561   0.549830   0.000016  -0.000151   0.001891   0.000006
    15  H   -0.000158   0.000016   0.545111  -0.004534   0.000000   0.000000
    16  H   -0.004535  -0.000151  -0.004534   0.546645  -0.000000  -0.000000
    17  H    0.000006   0.001891   0.000000  -0.000000   0.549828  -0.004562
    18  H    0.000000   0.000006   0.000000  -0.000000  -0.004562   0.545115
    19  H   -0.000000  -0.000000  -0.000000  -0.000000  -0.000151  -0.004534
    20  H    0.000000   0.000000   0.000000  -0.000000   0.000016  -0.000158
    21  H    0.000016  -0.000148  -0.004562  -0.000151   0.000003   0.000000
    22  H    0.000000   0.000003   0.000006  -0.000000  -0.000148   0.000016
              19         20         21         22
     1  C    0.000000  -0.000000   0.000268  -0.000010
     2  C   -0.000000   0.000001   0.005458   0.000017
     3  C    0.000005  -0.000168  -0.041110  -0.008474
     4  C   -0.000000  -0.000002   0.362189   0.005188
     5  C    0.000000  -0.000000  -0.038788   0.000024
     6  C    0.000000  -0.000000   0.004203  -0.000008
     7  C    0.004209   0.000753   0.000017   0.005459
     8  C   -0.039229   0.004028  -0.000010   0.000268
     9  C    0.368894  -0.039336  -0.000008   0.004202
    10  C   -0.039235   0.366967   0.000024  -0.038786
    11  C    0.004209  -0.035346   0.005186   0.362187
    12  C    0.000590   0.003088  -0.008472  -0.041113
    13  H   -0.000000   0.000000   0.000016   0.000000
    14  H   -0.000000   0.000000  -0.000148   0.000003
    15  H   -0.000000   0.000000  -0.004562   0.000006
    16  H   -0.000000  -0.000000  -0.000151  -0.000000
    17  H   -0.000151   0.000016   0.000003  -0.000148
    18  H   -0.004534  -0.000158   0.000000   0.000016
    19  H    0.546645  -0.004535  -0.000000  -0.000151
    20  H   -0.004535   0.545111   0.000006  -0.004561
    21  H   -0.000000   0.000006   0.549839   0.001891
    22  H   -0.000151  -0.004561   0.001891   0.549838
 Mulliken charges:
               1
     1  C   -0.167630
     2  C   -0.188753
     3  C    0.053754
     4  C   -0.188806
     5  C   -0.167618
     6  C   -0.160811
     7  C   -0.188808
     8  C   -0.167611
     9  C   -0.160811
    10  C   -0.167638
    11  C   -0.188747
    12  C    0.053753
    13  H    0.164133
    14  H    0.164161
    15  H    0.164135
    16  H    0.163284
    17  H    0.164160
    18  H    0.164133
    19  H    0.163284
    20  H    0.164135
    21  H    0.164149
    22  H    0.164152
 Sum of Mulliken charges =  -0.00000
 Mulliken charges with hydrogens summed into heavy atoms:
               1
     1  C   -0.003497
     2  C   -0.024593
     3  C    0.053754
     4  C   -0.024656
     5  C   -0.003483
     6  C    0.002473
     7  C   -0.024649
     8  C   -0.003478
     9  C    0.002473
    10  C   -0.003503
    11  C   -0.024595
    12  C    0.053753
 Electronic spatial extent (au):  <R**2>=           2296.6086
 Charge=             -0.0000 electrons
 Dipole moment (field-independent basis, Debye):
    X=              0.0000    Y=              0.0001    Z=             -0.0001  Tot=              0.0001
 Quadrupole moment (field-independent basis, Debye-Ang):
   XX=            -60.4096   YY=            -62.5097   ZZ=            -74.0686
   XY=              0.0003   XZ=              0.0002   YZ=             -0.0000
 Traceless Quadrupole moment (field-independent basis, Debye-Ang):
   XX=              5.2530   YY=              3.1529   ZZ=             -8.4060
   XY=              0.0003   XZ=              0.0002   YZ=             -0.0000
 Octapole moment (field-independent basis, Debye-Ang**2):
  XXX=             -0.0000  YYY=              0.0026  ZZZ=             -0.0004  XYY=              0.0001
  XXY=              0.0011  XXZ=             -0.0008  XZZ=             -0.0000  YZZ=             -0.0014
  YYZ=              0.0007  XYZ=            -10.9929
 Hexadecapole moment (field-independent basis, Debye-Ang**3):
 XXXX=          -2253.5608 YYYY=           -491.5179 ZZZZ=           -140.7388 XXXY=              0.0341
 XXXZ=             -0.0059 YYYX=             -0.0095 YYYZ=             -0.0001 ZZZX=              0.0026
 ZZZY=             -0.0000 XXYY=           -466.2246 XXZZ=           -479.6710 YYZZ=           -108.6734
 XXYZ=             -0.0001 YYXZ=              0.0040 ZZXY=             -0.0005
 N-N= 6.004814423062D+02 E-N=-2.272933229540D+03  KE= 4.590212772036D+02
 No NMR shielding tensors so no spin-rotation constants.
 Leave Link  601 at Fri Aug 18 10:44:02 2023, MaxMem=  4026531840 cpu:               2.2 elap:               0.1
 (Enter /home/software/GAUSSIAN/g16_new_pgi/l9999.exe)
 B after Tr=     4.562211    0.034203    0.008147
         Rot=   -0.000051   -0.001763   -0.003081    0.999994 Ang=-180.01 deg.
 Final structure in terms of initial Z-matrix:
 C
 C,1,B1
 C,2,B2,1,A1
 C,3,B3,2,A2,1,D1,0
 C,4,B4,3,A3,2,D2,0
 C,1,B5,2,A4,3,D3,0
 C,3,B6,2,A5,1,D4,0
 C,7,B7,3,A6,2,D5,0
 C,8,B8,7,A7,3,D6,0
 C,9,B9,8,A8,7,D7,0
 C,10,B10,9,A9,8,D8,0
 C,7,B11,3,A10,2,D9,0
 H,1,B12,2,A11,3,D10,0
 H,2,B13,1,A12,6,D11,0
 H,5,B14,4,A13,3,D12,0
 H,6,B15,1,A14,2,D13,0
 H,7,B16,3,A15,2,D14,0
 H,8,B17,7,A16,3,D15,0
 H,9,B18,8,A17,7,D16,0
 H,10,B19,9,A18,8,D17,0
 H,4,B20,3,A19,2,D18,0
 H,11,B21,10,A20,9,D19,0
      Variables:
 B1=1.39084828
 B2=1.3997132
 B3=1.39958204
 B4=1.39099271
 B5=1.39269923
 B6=2.50720651
 B7=1.3909855
 B8=1.39256753
 B9=1.39268294
 B10=1.39085628
 B11=1.39958252
 B12=1.08578292
 B13=1.08640837
 B14=1.08577726
 B15=1.08552785
 B16=1.08640608
 B17=1.08578025
 B18=1.08552784
 B19=1.08578032
 B20=1.08640766
 B21=1.08640988
 A1=120.77987915
 A2=118.48786159
 A3=120.78040752
 A4=120.19542272
 A5=97.30744996
 A6=151.36096667
 A7=120.19469843
 A8=119.56172895
 A9=120.19547906
 A10=30.58076279
 A11=119.71758041
 A12=119.88352068
 A13=119.70609222
 A14=120.21337095
 A15=88.75633245
 A16=119.70657492
 A17=120.2258298
 A18=120.08510208
 A19=119.32738634
 A20=119.88309349
 D1=-0.03968254
 D2=-0.01278577
 D3=0.05639258
 D4=162.34451686
 D5=147.10432467
 D6=0.06250151
 D7=-0.01881586
 D8=-0.03332287
 D9=147.12126422
 D10=179.51221217
 D11=-178.35790373
 D12=179.5128339
 D13=179.97942644
 D14=-34.26052146
 D15=179.52248862
 D16=179.98046118
 D17=-179.49103578
 D18=178.40869161
 D19=-178.35821745
 1\1\GINC-ET023\Scan\RM062X\6-31G(d)\C12H10\JDS199\18-Aug-2023\0\\#p op
 t=(modredundant,maxcycle=512) 6-31g(d) integral=ultrafine m062x\\Groun
 d-state optimization\\0,1\C,2.4142380172,0.018677687,0.0043558235\C,2.
 4093007799,0.0100389671,1.3951685097\C,1.2042166291,0.0051495112,2.107
 1694471\C,0.0037317332,0.0100031354,1.3876957982\C,0.0075003738,0.0197
 370771,-0.0032577432\C,1.2130014922,0.0237721308,-0.7003540518\C,2.135
 3932288,-0.7623923964,4.3048668926\C,2.1319715661,-0.7716622558,5.6958
 172916\C,1.1913195839,-0.0232561094,6.3988865693\C,0.2547535049,0.7344
 908497,5.7001524938\C,0.2597699334,0.7438825459,4.3093369682\C,1.19984
 59815,-0.0044334311,3.5913679206\H,3.3590855488,0.0303940306,-0.530480
 9951\H,3.348962069,0.0330874614,1.9399515727\H,-0.9340862221,0.0153596
 18,-0.5439126893\H,1.2165150265,0.0308515108,-1.7858531325\H,2.8544736
 361,-1.3689413179,3.7614518077\H,2.8607365559,-1.3722137842,6.23168873
 39\H,1.1879890602,-0.0303707832,7.4843859804\H,-0.4772698996,1.3276746
 651,6.239776076\H,-0.9394199268,-0.0199986179,1.9260696859\H,-0.455977
 779,1.3576214524,3.7695998176\\Version=ES64L-G16RevA.03\State=1-A\HF=-
 463.0984425,-463.0967982,-463.0944692,-463.0971621,-463.0984156,-463.0
 966997,-463.0943367,-463.0945545,-463.0970362,-463.0984425,-463.096803
 8,-463.0944686,-463.0971693,-463.0984162,-463.0967221,-463.09434,-463.
 0945485,-463.097015,-463.0984424\RMSD=3.425e-09,5.019e-09,8.507e-09,6.
 166e-09,4.929e-09,6.536e-09,5.803e-09,3.067e-09,6.568e-09,7.463e-09,3.
 661e-09,8.173e-09,5.168e-09,5.048e-09,5.957e-09,4.015e-09,8.043e-09,5.
 773e-09,6.759e-09\PG=C01 [X(C12H10)]\\@


 HIGGLEDY-PIGGLEDY
 NIC'LAUS COPERNICUS
 LOOKED AT THE UNIVERSE,
 SPOKE TO THE THRONG;
 GIVE UP YOUR PTOLOMY,
 RISE UP AND FOLLOW ME,
 HELIOCENTRICALLY
 PTOLEMY'S WRONG.
   -- NANCY L. STARK
 Job cpu time:       0 days  5 hours 11 minutes 23.4 seconds.
 Elapsed time:       0 days  0 hours 15 minutes 58.2 seconds.
 File lengths (MBytes):  RWF=     34 Int=      0 D2E=      0 Chk=      8 Scr=      1
 Normal termination of Gaussian 16 at Fri Aug 18 10:44:02 2023.
